TITLE = "vncfd field"
VARIABLES = "X", "Y", "rho", "u", "v", "p", "Mach", "T"
ZONE T="1", I=50, J=50, DATAPACKING=POINT
0.050000 0.004296 1.204106 686.467392 0.000000 101325.000000 2.000000 293.150000
0.150000 0.004296 1.204106 686.467392 0.000000 101325.000000 2.000000 293.150000
0.250000 0.004296 1.204106 686.467392 0.000000 101325.000000 2.000000 293.150000
0.350000 0.004296 1.204106 686.467392 0.000000 101325.000000 2.000000 293.150000
0.450000 0.004296 1.204106 686.467392 0.000000 101325.000000 2.000000 293.150000
0.550000 0.004296 1.204106 686.467392 0.000000 101325.000000 2.000000 293.150000
0.650000 0.004296 1.204106 686.467392 0.000000 101325.000000 2.000000 293.150000
0.750000 0.004296 1.204106 686.467392 0.000000 101325.000000 2.000000 293.150000
0.850000 0.004296 1.204106 686.467392 0.000000 101325.000000 2.000000 293.150000
0.950000 0.004296 1.204106 686.467392 0.000000 101325.000000 2.000000 293.150000
1.050000 0.004296 1.204106 686.467392 0.000000 101325.000000 2.000000 293.150000
1.150000 0.004296 1.204106 686.467392 0.000000 101325.000000 2.000000 293.150000
1.250000 0.004296 1.204106 686.467392 0.000000 101325.000000 2.000000 293.150000
1.350000 0.004296 1.204106 686.467392 0.000000 101325.000000 2.000000 293.150000
1.450000 0.004296 1.204106 686.467392 -0.000000 101325.000000 2.000000 293.150000
1.550000 0.004296 1.204106 686.467392 -0.000000 101325.000000 2.000000 293.150000
1.650000 0.004296 1.204106 686.467392 -0.000000 101325.000000 2.000000 293.150000
1.750000 0.004296 1.204106 686.467392 0.000000 101325.000000 2.000000 293.150000
1.850000 0.004296 1.204106 686.467392 0.000000 101325.000000 2.000000 293.150000
1.950000 0.004296 1.204106 686.467392 -0.000000 101325.000000 2.000000 293.150000
2.050000 0.004296 1.204106 686.467392 0.000000 101325.000000 2.000000 293.150000
2.150000 0.004296 1.204106 686.467392 0.000000 101325.000000 2.000000 293.150000
2.250000 0.004296 1.204106 686.467392 0.000000 101325.000000 2.000000 293.150000
2.350000 0.004296 1.204106 686.467392 0.000000 101325.000000 2.000000 293.150000
2.450000 0.004296 1.204106 686.467392 -0.000000 101325.000000 2.000000 293.150000
2.550000 0.004296 1.204106 686.467392 -0.000000 101325.000000 2.000000 293.150000
2.650000 0.004296 1.204106 686.467392 -0.000000 101325.000000 2.000000 293.150000
2.750000 0.004296 1.204106 686.467392 0.000000 101325.000000 2.000000 293.150000
2.850000 0.004296 1.204106 686.467392 -0.000000 101325.000000 2.000000 293.150000
2.950000 0.004296 1.204106 686.467390 0.000000 101325.001231 2.000000 293.150004
3.050000 0.017688 1.879700 490.453341 115.635086 212381.084272 1.266973 393.609289
3.150000 0.044471 1.940396 474.520131 126.096123 222505.401314 1.225412 399.473728
3.250000 0.071254 1.939429 474.199095 127.008760 222388.703935 1.225241 399.463349
3.350000 0.098038 1.938048 474.403746 127.116358 222168.291329 1.225975 399.351821
3.450000 0.124821 1.937386 474.500268 127.144652 222063.835624 1.226305 399.300473
3.550000 0.151605 1.936988 474.558013 127.159430 222001.240818 1.226501 399.269855
3.650000 0.178388 1.936694 474.600376 127.166058 221955.115504 1.226641 399.247602
3.750000 0.205171 1.936539 474.623241 127.175544 221930.505917 1.226721 399.235292
3.850000 0.231955 1.936410 474.641948 127.180781 221910.250171 1.226785 399.225347
3.950000 0.258738 1.936312 474.656240 127.184526 221894.763620 1.226834 399.217763
4.050000 0.285522 1.936237 474.667129 127.187354 221882.963413 1.226871 399.211985
4.150000 0.312305 1.936179 474.675559 127.189545 221873.829084 1.226899 399.207512
4.250000 0.339088 1.936133 474.682183 127.191270 221866.652466 1.226922 399.203997
4.350000 0.365872 1.936098 474.687266 127.192590 221861.145178 1.226939 399.201300
4.450000 0.392655 1.936070 474.691358 127.193659 221856.711395 1.226953 399.199128
4.550000 0.419439 1.936048 474.694536 127.194486 221853.269572 1.226964 399.197442
4.650000 0.446222 1.936031 474.697022 127.195133 221850.575945 1.226972 399.196123
4.750000 0.473006 1.936018 474.698927 127.195628 221848.512894 1.226979 399.195113
4.850000 0.499789 1.935976 474.704708 127.192967 221842.046493 1.226995 399.192254
4.950000 0.526572 1.935997 474.699282 127.195426 221845.617054 1.226981 399.194300
0.050000 0.013317 1.204106 686.467392 0.000000 101325.000000 2.000000 293.150000
0.150000 0.013317 1.204106 686.467392 0.000000 101325.000000 2.000000 293.150000
0.250000 0.013317 1.204106 686.467392 0.000000 101325.000000 2.000000 293.150000
0.350000 0.013317 1.204106 686.467392 0.000000 101325.000000 2.000000 293.150000
0.450000 0.013317 1.204106 686.467392 0.000000 101325.000000 2.000000 293.150000
0.550000 0.013317 1.204106 686.467392 0.000000 101325.000000 2.000000 293.150000
0.650000 0.013317 1.204106 686.467392 0.000000 101325.000000 2.000000 293.150000
0.750000 0.013317 1.204106 686.467392 0.000000 101325.000000 2.000000 293.150000
0.850000 0.013317 1.204106 686.467392 0.000000 101325.000000 2.000000 293.150000
0.950000 0.013317 1.204106 686.467392 0.000000 101325.000000 2.000000 293.150000
1.050000 0.013317 1.204106 686.467392 0.000000 101325.000000 2.000000 293.150000
1.150000 0.013317 1.204106 686.467392 0.000000 101325.000000 2.000000 293.150000
1.250000 0.013317 1.204106 686.467392 -0.000000 101325.000000 2.000000 293.150000
1.350000 0.013317 1.204106 686.467392 -0.000000 101325.000000 2.000000 293.150000
1.450000 0.013317 1.204106 686.467392 0.000000 101325.000000 2.000000 293.150000
1.550000 0.013317 1.204106 686.467392 -0.000000 101325.000000 2.000000 293.150000
1.650000 0.013317 1.204106 686.467392 0.000000 101325.000000 2.000000 293.150000
1.750000 0.013317 1.204106 686.467392 -0.000000 101325.000000 2.000000 293.150000
1.850000 0.013317 1.204106 686.467392 -0.000000 101325.000000 2.000000 293.150000
1.950000 0.013317 1.204106 686.467392 -0.000000 101325.000000 2.000000 293.150000
2.050000 0.013317 1.204106 686.467392 0.000000 101325.000000 2.000000 293.150000
2.150000 0.013317 1.204106 686.467392 0.000000 101325.000000 2.000000 293.150000
2.250000 0.013317 1.204106 686.467392 -0.000000 101325.000000 2.000000 293.150000
2.350000 0.013317 1.204106 686.467392 0.000000 101325.000000 2.000000 293.150000
2.450000 0.013317 1.204106 686.467392 -0.000000 101325.000000 2.000000 293.150000
2.550000 0.013317 1.204106 686.467392 0.000000 101325.000000 2.000000 293.150000
2.650000 0.013317 1.204106 686.467392 -0.000000 101325.000000 2.000000 293.150000
2.750000 0.013317 1.204106 686.467392 0.000000 101325.000000 2.000000 293.150000
2.850000 0.013317 1.204106 686.467392 -0.000000 101325.000000 2.000000 293.150000
2.950000 0.013317 1.204106 686.467390 0.000000 101325.001210 2.000000 293.150004
3.050000 0.026697 1.863313 537.749082 120.714710 201612.635733 1.416040 376.938015
3.150000 0.053456 1.987816 514.246784 135.905470 220966.939443 1.348318 387.248100
3.250000 0.080215 1.995931 512.543892 137.241380 222253.528984 1.343853 387.919122
3.350000 0.106974 1.995188 512.514229 137.332014 222160.885289 1.343870 387.901802
3.450000 0.133734 1.994428 512.513320 137.331947 222065.134613 1.343901 387.882421
3.550000 0.160493 1.993889 512.483471 137.320855 222003.492568 1.343826 387.879589
3.650000 0.187252 1.993458 512.443842 137.304314 221957.717162 1.343711 387.883373
3.750000 0.214011 1.993159 512.380555 137.289516 221933.006280 1.343521 387.898433
3.850000 0.240771 1.992890 512.313450 137.271478 221912.986934 1.343315 387.915851
3.950000 0.267530 1.992650 512.242310 137.252053 221897.588087 1.343094 387.935532
4.050000 0.294289 1.992435 512.167900 137.231807 221885.835114 1.342861 387.957000
4.150000 0.321049 1.992236 512.091094 137.211004 221876.730546 1.342620 387.979768
4.250000 0.347808 1.992045 512.008753 137.188587 221869.709682 1.342361 388.004741
4.350000 0.374567 1.991869 511.928730 137.167199 221864.079117 1.342109 388.029217
4.450000 0.401326 1.991700 511.847619 137.145387 221859.656972 1.341853 388.054294
4.550000 0.428085 1.991538 511.765571 137.123329 221856.223193 1.341594 388.079867
4.650000 0.454845 1.991381 511.682806 137.101099 221853.533376 1.341332 388.105813
4.750000 0.481604 1.991227 511.599416 137.078712 221851.472761 1.341068 388.132080
4.850000 0.508363 1.991052 511.524228 137.054479 221845.078127 1.340828 388.155141
4.950000 0.535123 1.990933 511.435148 137.034209 221848.316788 1.340547 388.184018
0.050000 0.023241 1.204106 686.467392 0.000000 101325.000000 2.000000 293.150000
0.150000 0.023241 1.204106 686.467392 0.000000 101325.000000 2.000000 293.150000
0.250000 0.023241 1.204106 686.467392 0.000000 101325.000000 2.000000 293.150000
0.350000 0.023241 1.204106 686.467392 0.000000 101325.000000 2.000000 293.150000
0.450000 0.023241 1.204106 686.467392 0.000000 101325.000000 2.000000 293.150000
0.550000 0.023241 1.204106 686.467392 0.000000 101325.000000 2.000000 293.150000
0.650000 0.023241 1.204106 686.467392 0.000000 101325.000000 2.000000 293.150000
0.750000 0.023241 1.204106 686.467392 0.000000 101325.000000 2.000000 293.150000
0.850000 0.023241 1.204106 686.467392 0.000000 101325.000000 2.000000 293.150000
0.950000 0.023241 1.204106 686.467392 0.000000 101325.000000 2.000000 293.150000
1.050000 0.023241 1.204106 686.467392 -0.000000 101325.000000 2.000000 293.150000
1.150000 0.023241 1.204106 686.467392 0.000000 101325.000000 2.000000 293.150000
1.250000 0.023241 1.204106 686.467392 0.000000 101325.000000 2.000000 293.150000
1.350000 0.023241 1.204106 686.467392 -0.000000 101325.000000 2.000000 293.150000
1.450000 0.023241 1.204106 686.467392 -0.000000 101325.000000 2.000000 293.150000
1.550000 0.023241 1.204106 686.467392 -0.000000 101325.000000 2.000000 293.150000
1.650000 0.023241 1.204106 686.467392 0.000000 101325.000000 2.000000 293.150000
1.750000 0.023241 1.204106 686.467392 -0.000000 101325.000000 2.000000 293.150000
1.850000 0.023241 1.204106 686.467392 0.000000 101325.000000 2.000000 293.150000
1.950000 0.023241 1.204106 686.467392 0.000000 101325.000000 2.000000 293.150000
2.050000 0.023241 1.204106 686.467392 0.000000 101325.000000 2.000000 293.150000
2.150000 0.023241 1.204106 686.467392 0.000000 101325.000000 2.000000 293.150000
2.250000 0.023241 1.204106 686.467392 -0.000000 101325.000000 2.000000 293.150000
2.350000 0.023241 1.204106 686.467392 0.000000 101325.000000 2.000000 293.150000
2.450000 0.023241 1.204106 686.467392 -0.000000 101325.000000 2.000000 293.150000
2.550000 0.023241 1.204106 686.467392 0.000000 101325.000000 2.000000 293.150000
2.650000 0.023241 1.204106 686.467392 0.000000 101325.000000 2.000000 293.150000
2.750000 0.023241 1.204106 686.467392 -0.000000 101325.000000 2.000000 293.150000
2.850000 0.023241 1.204106 686.467392 0.000000 101325.000000 2.000000 293.150000
2.950000 0.023241 1.204106 686.467390 0.000000 101325.001171 2.000000 293.150003
3.050000 0.036607 1.811485 556.673449 115.012515 191330.378653 1.478219 367.948705
3.150000 0.063340 1.991081 524.121550 136.618448 218797.335047 1.380911 382.817037
3.250000 0.090072 2.011788 520.355594 139.134062 222002.581966 1.370386 384.427055
3.350000 0.116805 2.012564 520.126237 139.367049 222135.958918 1.369829 384.509732
3.450000 0.143538 2.011990 520.153880 139.387513 222060.538820 1.369948 384.488738
3.550000 0.170270 2.011518 520.171536 139.387618 222000.867355 1.370014 384.475635
3.650000 0.197003 2.011144 520.178277 139.382086 221955.787658 1.370039 384.469067
3.750000 0.223735 2.010897 520.163799 139.379056 221930.726374 1.369994 384.472944
3.850000 0.250468 2.010685 520.145429 139.373649 221910.945212 1.369935 384.479171
3.950000 0.277201 2.010500 520.122083 139.366617 221895.714747 1.369857 384.488041
4.050000 0.303934 2.010340 520.096050 139.359073 221884.013063 1.369770 384.498385
4.150000 0.330666 2.010197 520.067347 139.350938 221874.968135 1.369673 384.510117
4.250000 0.357399 2.010064 520.035800 139.342077 221867.910613 1.369566 384.523252
4.350000 0.384132 2.009943 520.003301 139.333180 221862.392622 1.369456 384.536896
4.450000 0.410864 2.009827 519.968676 139.323667 221858.049243 1.369339 384.551552
4.550000 0.437596 2.009719 519.933703 139.314166 221854.616695 1.369220 384.566401
4.650000 0.464329 2.009613 519.896912 139.304140 221851.986582 1.369095 384.582087
4.750000 0.491062 2.009512 519.860095 139.294205 221849.919208 1.368970 384.597790
4.850000 0.517795 2.009387 519.828173 139.281585 221843.901160 1.368859 384.611338
4.950000 0.544527 2.009314 519.784881 139.273190 221846.623387 1.368714 384.629924
0.050000 0.034156 1.204106 686.467392 0.000000 101325.000000 2.000000 293.150000
0.150000 0.034156 1.204106 686.467392 0.000000 101325.000000 2.000000 293.150000
0.250000 0.034156 1.204106 686.467392 0.000000 101325.000000 2.000000 293.150000
0.350000 0.034156 1.204106 686.467392 0.000000 101325.000000 2.000000 293.150000
0.450000 0.034156 1.204106 686.467392 0.000000 101325.000000 2.000000 293.150000
0.550000 0.034156 1.204106 686.467392 0.000000 101325.000000 2.000000 293.150000
0.650000 0.034156 1.204106 686.467392 0.000000 101325.000000 2.000000 293.150000
0.750000 0.034156 1.204106 686.467392 0.000000 101325.000000 2.000000 293.150000
0.850000 0.034156 1.204106 686.467392 0.000000 101325.000000 2.000000 293.150000
0.950000 0.034156 1.204106 686.467392 0.000000 101325.000000 2.000000 293.150000
1.050000 0.034156 1.204106 686.467392 0.000000 101325.000000 2.000000 293.150000
1.150000 0.034156 1.204106 686.467392 -0.000000 101325.000000 2.000000 293.150000
1.250000 0.034156 1.204106 686.467392 -0.000000 101325.000000 2.000000 293.150000
1.350000 0.034156 1.204106 686.467392 0.000000 101325.000000 2.000000 293.150000
1.450000 0.034156 1.204106 686.467392 0.000000 101325.000000 2.000000 293.150000
1.550000 0.034156 1.204106 686.467392 -0.000000 101325.000000 2.000000 293.150000
1.650000 0.034156 1.204106 686.467392 0.000000 101325.000000 2.000000 293.150000
1.750000 0.034156 1.204106 686.467392 0.000000 101325.000000 2.000000 293.150000
1.850000 0.034156 1.204106 686.467392 0.000000 101325.000000 2.000000 293.150000
1.950000 0.034156 1.204106 686.467392 -0.000000 101325.000000 2.000000 293.150000
2.050000 0.034156 1.204106 686.467392 -0.000000 101325.000000 2.000000 293.150000
2.150000 0.034156 1.204106 686.467392 -0.000000 101325.000000 2.000000 293.150000
2.250000 0.034156 1.204106 686.467392 0.000000 101325.000000 2.000000 293.150000
2.350000 0.034156 1.204106 686.467392 -0.000000 101325.000000 2.000000 293.150000
2.450000 0.034156 1.204106 686.467392 -0.000000 101325.000000 2.000000 293.150000
2.550000 0.034156 1.204106 686.467392 -0.000000 101325.000000 2.000000 293.150000
2.650000 0.034156 1.204106 686.467392 0.000000 101325.000000 2.000000 293.150000
2.750000 0.034156 1.204106 686.467392 -0.000000 101325.000000 2.000000 293.150000
2.850000 0.034156 1.204106 686.467392 0.000000 101325.000000 2.000000 293.150000
2.950000 0.034156 1.204106 686.467390 0.000001 101325.001114 2.000000 293.150003
3.050000 0.047508 1.752364 573.723993 107.046610 180667.290686 1.536181 359.164449
3.150000 0.074211 1.983584 532.159978 135.718074 215640.681415 1.407737 378.720030
3.250000 0.100915 2.022000 525.445012 140.055043 221524.174050 1.388505 381.661212
3.350000 0.127618 2.025532 524.750667 140.565453 222080.680461 1.386599 381.952794
3.450000 0.154322 2.025267 524.727480 140.615892 222054.416507 1.386566 381.957738
3.550000 0.181025 2.024818 524.744904 140.617919 221999.721886 1.386628 381.948214
3.650000 0.207729 2.024440 524.755110 140.612205 221955.514762 1.386658 381.943518
3.750000 0.234432 2.024182 524.746330 140.609266 221930.061653 1.386625 381.948319
3.850000 0.261135 2.023964 524.732852 140.604618 221910.491252 1.386576 381.955789
3.950000 0.287839 2.023775 524.715461 140.598822 221895.351393 1.386511 381.965435
4.050000 0.314542 2.023609 524.694859 140.592403 221883.729025 1.386436 381.976818
4.150000 0.341245 2.023458 524.671406 140.585431 221874.738012 1.386350 381.989736
4.250000 0.367949 2.023321 524.646545 140.578256 221867.662598 1.386259 382.003392
4.350000 0.394652 2.023195 524.620135 140.570835 221862.180499 1.386163 382.017863
4.450000 0.421355 2.023074 524.592183 140.563030 221857.845922 1.386061 382.033157
4.550000 0.448059 2.022961 524.563699 140.555185 221854.429403 1.385957 382.048710
4.650000 0.474763 2.022852 524.534408 140.547145 221851.782208 1.385851 382.064679
4.750000 0.501466 2.022747 524.504446 140.538971 221849.743304 1.385742 382.080987
4.850000 0.528169 2.022618 524.478421 140.528087 221844.050841 1.385644 382.095586
4.950000 0.554873 2.022540 524.443826 140.521621 221846.204889 1.385521 382.114010
0.050000 0.046164 1.204106 686.467392 0.000000 101325.000000 2.000000 293.150000
0.150000 0.046164 1.204106 686.467392 0.000000 101325.000000 2.000000 293.150000
0.250000 0.046164 1.204106 686.467392 0.000000 101325.000000 2.000000 293.150000
0.350000 0.046164 1.204106 686.467392 0.000000 101325.000000 2.000000 293.150000
0.450000 0.046164 1.204106 686.467392 0.000000 101325.000000 2.000000 293.150000
0.550000 0.046164 1.204106 686.467392 0.000000 101325.000000 2.000000 293.150000
0.650000 0.046164 1.204106 686.467392 0.000000 101325.000000 2.000000 293.150000
0.750000 0.046164 1.204106 686.467392 0.000000 101325.000000 2.000000 293.150000
0.850000 0.046164 1.204106 686.467392 0.000000 101325.000000 2.000000 293.150000
0.950000 0.046164 1.204106 686.467392 0.000000 101325.000000 2.000000 293.150000
1.050000 0.046164 1.204106 686.467392 0.000000 101325.000000 2.000000 293.150000
1.150000 0.046164 1.204106 686.467392 0.000000 101325.000000 2.000000 293.150000
1.250000 0.046164 1.204106 686.467392 -0.000000 101325.000000 2.000000 293.150000
1.350000 0.046164 1.204106 686.467392 0.000000 101325.000000 2.000000 293.150000
1.450000 0.046164 1.204106 686.467392 -0.000000 101325.000000 2.000000 293.150000
1.550000 0.046164 1.204106 686.467392 0.000000 101325.000000 2.000000 293.150000
1.650000 0.046164 1.204106 686.467392 0.000000 101325.000000 2.000000 293.150000
1.750000 0.046164 1.204106 686.467392 -0.000000 101325.000000 2.000000 293.150000
1.850000 0.046164 1.204106 686.467392 0.000000 101325.000000 2.000000 293.150000
1.950000 0.046164 1.204106 686.467392 0.000000 101325.000000 2.000000 293.150000
2.050000 0.046164 1.204106 686.467392 -0.000000 101325.000000 2.000000 293.150000
2.150000 0.046164 1.204106 686.467392 0.000000 101325.000000 2.000000 293.150000
2.250000 0.046164 1.204106 686.467392 -0.000000 101325.000000 2.000000 293.150000
2.350000 0.046164 1.204106 686.467392 -0.000000 101325.000000 2.000000 293.150000
2.450000 0.046164 1.204106 686.467392 -0.000000 101325.000000 2.000000 293.150000
2.550000 0.046164 1.204106 686.467392 0.000000 101325.000000 2.000000 293.150000
2.650000 0.046164 1.204106 686.467392 0.000000 101325.000000 2.000000 293.150000
2.750000 0.046164 1.204106 686.467392 -0.000000 101325.000000 2.000000 293.150000
2.850000 0.046164 1.204106 686.467392 -0.000000 101325.000000 2.000000 293.150000
2.950000 0.046164 1.204106 686.467390 0.000001 101325.001040 2.000000 293.150003
3.050000 0.059499 1.688452 590.650820 97.398964 169684.697566 1.595937 350.099912
3.150000 0.086170 1.966132 540.724161 133.568961 211253.092705 1.436078 374.307430
3.250000 0.112842 2.028124 530.079218 140.474094 220672.931443 1.405037 379.046666
3.350000 0.139513 2.036454 528.580518 141.482533 221958.734880 1.400792 379.695839
3.450000 0.166184 2.036878 528.438013 141.603649 222039.497811 1.400411 379.754825
3.550000 0.192856 2.036503 528.439639 141.611835 221998.013500 1.400422 379.753864
3.650000 0.219527 2.036122 528.446669 141.605116 221955.557571 1.400438 379.752134
3.750000 0.246198 2.035851 528.437606 141.600649 221929.747380 1.400401 379.758539
3.850000 0.272869 2.035622 528.422914 141.595005 221910.339688 1.400344 379.768061
3.950000 0.299540 2.035422 528.404398 141.588461 221895.309431 1.400272 379.779709
4.050000 0.326212 2.035244 528.382776 141.581428 221883.740838 1.400189 379.793049
4.150000 0.352883 2.035084 528.358788 141.574080 221874.766881 1.400098 379.807666
4.250000 0.379554 2.034936 528.333023 141.566458 221867.731974 1.400001 379.823247
4.350000 0.406225 2.034798 528.305782 141.558664 221862.265363 1.399898 379.839618
4.450000 0.432897 2.034667 528.277471 141.550675 221857.933357 1.399791 379.856568
4.550000 0.459568 2.034543 528.248252 141.542527 221854.543266 1.399682 379.874007
4.650000 0.486239 2.034424 528.218600 141.534336 221851.894318 1.399570 379.891661
4.750000 0.512910 2.034308 528.188014 141.525922 221849.877166 1.399456 379.909835
4.850000 0.539581 2.034171 528.161368 141.515096 221844.484531 1.399353 379.926260
4.950000 0.566253 2.034079 528.126855 141.508144 221846.136486 1.399226 379.946269
0.050000 0.059372 1.204106 686.467392 0.000000 101325.000000 2.000000 293.150000
0.150000 0.059372 1.204106 686.467392 0.000000 101325.000000 2.000000 293.150000
0.250000 0.059372 1.204106 686.467392 0.000000 101325.000000 2.000000 293.150000
0.350000 0.059372 1.204106 686.467392 0.000000 101325.000000 2.000000 293.150000
0.450000 0.059372 1.204106 686.467392 0.000000 101325.000000 2.000000 293.150000
0.550000 0.059372 1.204106 686.467392 0.000000 101325.000000 2.000000 293.150000
0.650000 0.059372 1.204106 686.467392 0.000000 101325.000000 2.000000 293.150000
0.750000 0.059372 1.204106 686.467392 0.000000 101325.000000 2.000000 293.150000
0.850000 0.059372 1.204106 686.467392 0.000000 101325.000000 2.000000 293.150000
0.950000 0.059372 1.204106 686.467392 0.000000 101325.000000 2.000000 293.150000
1.050000 0.059372 1.204106 686.467392 -0.000000 101325.000000 2.000000 293.150000
1.150000 0.059372 1.204106 686.467392 0.000000 101325.000000 2.000000 293.150000
1.250000 0.059372 1.204106 686.467392 0.000000 101325.000000 2.000000 293.150000
1.350000 0.059372 1.204106 686.467392 0.000000 101325.000000 2.000000 293.150000
1.450000 0.059372 1.204106 686.467392 -0.000000 101325.000000 2.000000 293.150000
1.550000 0.059372 1.204106 686.467392 0.000000 101325.000000 2.000000 293.150000
1.650000 0.059372 1.204106 686.467392 -0.000000 101325.000000 2.000000 293.150000
1.750000 0.059372 1.204106 686.467392 0.000000 101325.000000 2.000000 293.150000
1.850000 0.059372 1.204106 686.467392 -0.000000 101325.000000 2.000000 293.150000
1.950000 0.059372 1.204106 686.467392 -0.000000 101325.000000 2.000000 293.150000
2.050000 0.059372 1.204106 686.467392 -0.000000 101325.000000 2.000000 293.150000
2.150000 0.059372 1.204106 686.467392 0.000000 101325.000000 2.000000 293.150000
2.250000 0.059372 1.204106 686.467392 -0.000000 101325.000000 2.000000 293.150000
2.350000 0.059372 1.204106 686.467392 0.000000 101325.000000 2.000000 293.150000
2.450000 0.059372 1.204106 686.467392 -0.000000 101325.000000 2.000000 293.150000
2.550000 0.059372 1.204106 686.467392 -0.000000 101325.000000 2.000000 293.150000
2.650000 0.059372 1.204106 686.467392 0.000000 101325.000000 2.000000 293.150000
2.750000 0.059372 1.204106 686.467392 -0.000000 101325.000000 2.000000 293.150000
2.850000 0.059372 1.204106 686.467392 0.000000 101325.000000 2.000000 293.150000
2.950000 0.059372 1.204106 686.467391 0.000001 101325.000950 2.000000 293.150002
3.050000 0.072690 1.620552 607.231258 86.143907 158585.276536 1.656979 340.908599
3.150000 0.099326 1.936606 550.096902 129.916251 205419.782708 1.466765 369.520932
3.250000 0.125962 2.028249 534.475296 140.253860 219254.782180 1.420399 376.587498
3.350000 0.152597 2.044345 531.693370 142.081421 221711.167969 1.412402 377.808247
3.450000 0.179233 2.046168 531.321050 142.348523 222003.396297 1.411355 377.969125
3.550000 0.205869 2.046002 531.290706 142.377254 221993.370536 1.411274 377.982777
3.650000 0.232505 2.045651 531.295269 142.372410 221955.274902 1.411282 377.982709
3.750000 0.259141 2.045381 531.288641 142.367372 221929.403274 1.411251 377.988576
3.850000 0.285776 2.045155 531.276363 142.361649 221910.088530 1.411200 377.997510
3.950000 0.312412 2.044957 531.259993 142.355169 221895.163082 1.411134 378.008719
4.050000 0.339048 2.044781 531.240749 142.348405 221883.630327 1.411058 378.021471
4.150000 0.365684 2.044622 531.218906 142.341333 221874.694942 1.410973 378.035647
4.250000 0.392320 2.044476 531.195268 142.334066 221867.684590 1.410881 378.050795
4.350000 0.418956 2.044340 531.170360 142.326741 221862.220177 1.410785 378.066606
4.450000 0.445592 2.044211 531.144128 142.319169 221857.918032 1.410684 378.083159
4.550000 0.472227 2.044088 531.116980 142.311472 221854.542603 1.410580 378.100211
4.650000 0.498863 2.043970 531.089294 142.303722 221851.907754 1.410474 378.117538
4.750000 0.525499 2.043855 531.060746 142.295788 221849.901571 1.410365 378.135354
4.850000 0.552135 2.043720 531.035675 142.285598 221844.834765 1.410266 378.151640
4.950000 0.578770 2.043626 531.003962 142.278910 221845.972009 1.410147 378.170931
0.050000 0.073901 1.204106 686.467392 0.000000 101325.000000 2.000000 293.150000
0.150000 0.073901 1.204106 686.467392 0.000000 101325.000000 2.000000 293.150000
0.250000 0.073901 1.204106 686.467392 0.000000 101325.000000 2.000000 293.150000
0.350000 0.073901 1.204106 686.467392 0.000000 101325.000000 2.000000 293.150000
0.450000 0.073901 1.204106 686.467392 0.000000 101325.000000 2.000000 293.150000
0.550000 0.073901 1.204106 686.467392 0.000000 101325.000000 2.000000 293.150000
0.650000 0.073901 1.204106 686.467392 0.000000 101325.000000 2.000000 293.150000
0.750000 0.073901 1.204106 686.467392 0.000000 101325.000000 2.000000 293.150000
0.850000 0.073901 1.204106 686.467392 0.000000 101325.000000 2.000000 293.150000
0.950000 0.073901 1.204106 686.467392 0.000000 101325.000000 2.000000 293.150000
1.050000 0.073901 1.204106 686.467392 0.000000 101325.000000 2.000000 293.150000
1.150000 0.073901 1.204106 686.467392 0.000000 101325.000000 2.000000 293.150000
1.250000 0.073901 1.204106 686.467392 0.000000 101325.000000 2.000000 293.150000
1.350000 0.073901 1.204106 686.467392 0.000000 101325.000000 2.000000 293.150000
1.450000 0.073901 1.204106 686.467392 0.000000 101325.000000 2.000000 293.150000
1.550000 0.073901 1.204106 686.467392 0.000000 101325.000000 2.000000 293.150000
1.650000 0.073901 1.204106 686.467392 0.000000 101325.000000 2.000000 293.150000
1.750000 0.073901 1.204106 686.467392 0.000000 101325.000000 2.000000 293.150000
1.850000 0.073901 1.204106 686.467392 -0.000000 101325.000000 2.000000 293.150000
1.950000 0.073901 1.204106 686.467392 0.000000 101325.000000 2.000000 293.150000
2.050000 0.073901 1.204106 686.467392 0.000000 101325.000000 2.000000 293.150000
2.150000 0.073901 1.204106 686.467392 -0.000000 101325.000000 2.000000 293.150000
2.250000 0.073901 1.204106 686.467392 0.000000 101325.000000 2.000000 293.150000
2.350000 0.073901 1.204106 686.467392 -0.000000 101325.000000 2.000000 293.150000
2.450000 0.073901 1.204106 686.467392 -0.000000 101325.000000 2.000000 293.150000
2.550000 0.073901 1.204106 686.467392 -0.000000 101325.000000 2.000000 293.150000
2.650000 0.073901 1.204106 686.467392 -0.000000 101325.000000 2.000000 293.150000
2.750000 0.073901 1.204106 686.467392 0.000000 101325.000000 2.000000 293.150000
2.850000 0.073901 1.204106 686.467392 -0.000000 101325.000000 2.000000 293.150000
2.950000 0.073901 1.204106 686.467391 0.000001 101325.000846 2.000000 293.150002
3.050000 0.087199 1.550123 623.065554 73.508359 147658.301443 1.718009 331.840904
3.150000 0.113796 1.893322 560.527869 124.467420 197972.164760 1.500703 364.265321
3.250000 0.140393 2.020204 538.894073 139.199152 217018.889843 1.435205 374.231528
3.350000 0.166990 2.048100 534.171673 142.290889 221244.347636 1.421485 376.321582
3.450000 0.193587 2.052503 533.382501 142.828771 221923.018717 1.419231 376.666271
3.550000 0.220184 2.052804 533.283127 142.905492 221981.287465 1.418954 376.709849
3.650000 0.246781 2.052540 533.282014 142.908303 221953.891338 1.418949 376.711742
3.750000 0.273378 2.052292 533.280354 142.904319 221928.891933 1.418936 376.714897
3.850000 0.299975 2.052082 533.273570 142.899334 221909.723737 1.418905 376.720911
3.950000 0.326571 2.051900 533.262905 142.893848 221894.866471 1.418859 376.729056
4.050000 0.353168 2.051741 533.249274 142.888169 221883.367821 1.418804 376.738793
4.150000 0.379765 2.051598 533.233086 142.882297 221874.449886 1.418738 376.749926
4.250000 0.406362 2.051467 533.215060 142.876296 221867.455661 1.418667 376.762053
4.350000 0.432959 2.051347 533.195663 142.870256 221862.001161 1.418591 376.774906
4.450000 0.459556 2.051233 533.174972 142.864027 221857.715263 1.418509 376.788484
4.550000 0.486153 2.051125 533.153336 142.857692 221854.351953 1.418425 376.802581
4.650000 0.512750 2.051022 533.131055 142.851295 221851.731091 1.418338 376.817021
4.750000 0.539347 2.050923 533.107957 142.844745 221849.735693 1.418249 376.831929
4.850000 0.565944 2.050805 533.087879 142.836112 221845.000375 1.418167 376.845526
4.950000 0.592541 2.050722 533.061873 142.830446 221845.664617 1.418068 376.861853
0.050000 0.089883 1.204106 686.467392 0.000000 101325.000000 2.000000 293.150000
0.150000 0.089883 1.204106 686.467392 0.000000 101325.000000 2.000000 293.150000
0.250000 0.089883 1.204106 686.467392 0.000000 101325.000000 2.000000 293.150000
0.350000 0.089883 1.204106 686.467392 0.000000 101325.000000 2.000000 293.150000
0.450000 0.089883 1.204106 686.467392 0.000000 101325.000000 2.000000 293.150000
0.550000 0.089883 1.204106 686.467392 0.000000 101325.000000 2.000000 293.150000
0.650000 0.089883 1.204106 686.467392 0.000000 101325.000000 2.000000 293.150000
0.750000 0.089883 1.204106 686.467392 0.000000 101325.000000 2.000000 293.150000
0.850000 0.089883 1.204106 686.467392 0.000000 101325.000000 2.000000 293.150000
0.950000 0.089883 1.204106 686.467392 0.000000 101325.000000 2.000000 293.150000
1.050000 0.089883 1.204106 686.467392 0.000000 101325.000000 2.000000 293.150000
1.150000 0.089883 1.204106 686.467392 -0.000000 101325.000000 2.000000 293.150000
1.250000 0.089883 1.204106 686.467392 -0.000000 101325.000000 2.000000 293.150000
1.350000 0.089883 1.204106 686.467392 0.000000 101325.000000 2.000000 293.150000