TITLE = "vncfd python"
VARIABLES = "X", "Y"
ZONE T="1", I= 51, J= 51
0.000000 0.000000
0.100000 0.000000
0.200000 0.000000
0.300000 0.000000
0.400000 0.000000
0.500000 0.000000
0.600000 0.000000
0.700000 0.000000
0.800000 0.000000
0.900000 0.000000
1.000000 0.000000
1.100000 0.000000
1.200000 0.000000
1.300000 0.000000
1.400000 0.000000
1.500000 0.000000
1.600000 0.000000
1.700000 0.000000
1.800000 0.000000
1.900000 0.000000
2.000000 0.000000
2.100000 0.000000
2.200000 0.000000
2.300000 0.000000
2.400000 0.000000
2.500000 0.000000
2.600000 0.000000
2.700000 0.000000
2.800000 0.000000
2.900000 0.000000
3.000000 0.000000
3.100000 0.026795
3.200000 0.053590
3.300000 0.080385
3.400000 0.107180
3.500000 0.133975
3.600000 0.160770
3.700000 0.187564
3.800000 0.214359
3.900000 0.241154
4.000000 0.267949
4.100000 0.294744
4.200000 0.321539
4.300000 0.348334
4.400000 0.375129
4.500000 0.401924
4.600000 0.428719
4.700000 0.455514
4.800000 0.482309
4.900000 0.509103
5.000000 0.535898
0.000000 0.008592
0.100000 0.008592
0.200000 0.008592
0.300000 0.008592
0.400000 0.008592
0.500000 0.008592
0.600000 0.008592
0.700000 0.008592
0.800000 0.008592
0.900000 0.008592
1.000000 0.008592
1.100000 0.008592
1.200000 0.008592
1.300000 0.008592
1.400000 0.008592
1.500000 0.008592
1.600000 0.008592
1.700000 0.008592
1.800000 0.008592
1.900000 0.008592
2.000000 0.008592
2.100000 0.008592
2.200000 0.008592
2.300000 0.008592
2.400000 0.008592
2.500000 0.008592
2.600000 0.008592
2.700000 0.008592
2.800000 0.008592
2.900000 0.008592
3.000000 0.008592
3.100000 0.035364
3.200000 0.062136
3.300000 0.088907
3.400000 0.115679
3.500000 0.142451
3.600000 0.169223
3.700000 0.195995
3.800000 0.222767
3.900000 0.249539
4.000000 0.276311
4.100000 0.303083
4.200000 0.329855
4.300000 0.356626
4.400000 0.383398
4.500000 0.410170
4.600000 0.436942
4.700000 0.463714
4.800000 0.490486
4.900000 0.517258
5.000000 0.544030
0.000000 0.018043
0.100000 0.018043
0.200000 0.018043
0.300000 0.018043
0.400000 0.018043
0.500000 0.018043
0.600000 0.018043
0.700000 0.018043
0.800000 0.018043
0.900000 0.018043
1.000000 0.018043
1.100000 0.018043
1.200000 0.018043
1.300000 0.018043
1.400000 0.018043
1.500000 0.018043
1.600000 0.018043
1.700000 0.018043
1.800000 0.018043
1.900000 0.018043
2.000000 0.018043
2.100000 0.018043
2.200000 0.018043
2.300000 0.018043
2.400000 0.018043
2.500000 0.018043
2.600000 0.018043
2.700000 0.018043
2.800000 0.018043
2.900000 0.018043
3.000000 0.018043
3.100000 0.044789
3.200000 0.071536
3.300000 0.098282
3.400000 0.125029
3.500000 0.151776
3.600000 0.178522
3.700000 0.205269
3.800000 0.232015
3.900000 0.258762
4.000000 0.285508
4.100000 0.312255
4.200000 0.339002
4.300000 0.365748
4.400000 0.392495
4.500000 0.419241
4.600000 0.445988
4.700000 0.472734
4.800000 0.499481
4.900000 0.526228
5.000000 0.552974
0.000000 0.028439
0.100000 0.028439
0.200000 0.028439
0.300000 0.028439
0.400000 0.028439
0.500000 0.028439
0.600000 0.028439
0.700000 0.028439
0.800000 0.028439
0.900000 0.028439
1.000000 0.028439
1.100000 0.028439
1.200000 0.028439
1.300000 0.028439
1.400000 0.028439
1.500000 0.028439
1.600000 0.028439
1.700000 0.028439
1.800000 0.028439
1.900000 0.028439
2.000000 0.028439
2.100000 0.028439
2.200000 0.028439
2.300000 0.028439
2.400000 0.028439
2.500000 0.028439
2.600000 0.028439
2.700000 0.028439
2.800000 0.028439
2.900000 0.028439
3.000000 0.028439
3.100000 0.055157
3.200000 0.081876
3.300000 0.108595
3.400000 0.135314
3.500000 0.162032
3.600000 0.188751
3.700000 0.215470
3.800000 0.242188
3.900000 0.268907
4.000000 0.295626
4.100000 0.322345
4.200000 0.349063
4.300000 0.375782
4.400000 0.402501
4.500000 0.429219
4.600000 0.455938
4.700000 0.482657
4.800000 0.509376
4.900000 0.536094
5.000000 0.562813
0.000000 0.039874
0.100000 0.039874
0.200000 0.039874
0.300000 0.039874
0.400000 0.039874
0.500000 0.039874
0.600000 0.039874
0.700000 0.039874
0.800000 0.039874
0.900000 0.039874
1.000000 0.039874
1.100000 0.039874
1.200000 0.039874
1.300000 0.039874
1.400000 0.039874
1.500000 0.039874
1.600000 0.039874
1.700000 0.039874
1.800000 0.039874
1.900000 0.039874
2.000000 0.039874
2.100000 0.039874
2.200000 0.039874
2.300000 0.039874
2.400000 0.039874
2.500000 0.039874
2.600000 0.039874
2.700000 0.039874
2.800000 0.039874
2.900000 0.039874
3.000000 0.039874
3.100000 0.066562
3.200000 0.093250
3.300000 0.119938
3.400000 0.146627
3.500000 0.173315
3.600000 0.200003
3.700000 0.226691
3.800000 0.253379
3.900000 0.280067
4.000000 0.306755
4.100000 0.333443
4.200000 0.360131
4.300000 0.386819
4.400000 0.413507
4.500000 0.440195
4.600000 0.466883
4.700000 0.493572
4.800000 0.520260
4.900000 0.546948
5.000000 0.573636
0.000000 0.052453
0.100000 0.052453
0.200000 0.052453
0.300000 0.052453
0.400000 0.052453
0.500000 0.052453
0.600000 0.052453
0.700000 0.052453
0.800000 0.052453
0.900000 0.052453
1.000000 0.052453
1.100000 0.052453
1.200000 0.052453
1.300000 0.052453
1.400000 0.052453
1.500000 0.052453
1.600000 0.052453
1.700000 0.052453
1.800000 0.052453
1.900000 0.052453
2.000000 0.052453
2.100000 0.052453
2.200000 0.052453
2.300000 0.052453
2.400000 0.052453
2.500000 0.052453
2.600000 0.052453
2.700000 0.052453
2.800000 0.052453
2.900000 0.052453
3.000000 0.052453
3.100000 0.079108
3.200000 0.105762
3.300000 0.132417
3.400000 0.159071
3.500000 0.185725
3.600000 0.212380
3.700000 0.239034
3.800000 0.265688
3.900000 0.292343
4.000000 0.318997
4.100000 0.345652
4.200000 0.372306
4.300000 0.398960
4.400000 0.425615
4.500000 0.452269
4.600000 0.478923
4.700000 0.505578
4.800000 0.532232
4.900000 0.558886
5.000000 0.585541
0.000000 0.066291
0.100000 0.066291
0.200000 0.066291
0.300000 0.066291
0.400000 0.066291
0.500000 0.066291
0.600000 0.066291
0.700000 0.066291
0.800000 0.066291
0.900000 0.066291
1.000000 0.066291
1.100000 0.066291
1.200000 0.066291
1.300000 0.066291
1.400000 0.066291
1.500000 0.066291
1.600000 0.066291
1.700000 0.066291
1.800000 0.066291
1.900000 0.066291
2.000000 0.066291
2.100000 0.066291
2.200000 0.066291
2.300000 0.066291
2.400000 0.066291
2.500000 0.066291
2.600000 0.066291
2.700000 0.066291
2.800000 0.066291
2.900000 0.066291
3.000000 0.066291
3.100000 0.092908
3.200000 0.119525
3.300000 0.146142
3.400000 0.172760
3.500000 0.199377
3.600000 0.225994
3.700000 0.252612
3.800000 0.279229
3.900000 0.305846
4.000000 0.332463
4.100000 0.359081
4.200000 0.385698
4.300000 0.412315
4.400000 0.438933
4.500000 0.465550
4.600000 0.492167
4.700000 0.518785
4.800000 0.545402
4.900000 0.572019
5.000000 0.598636
0.000000 0.081511
0.100000 0.081511
0.200000 0.081511
0.300000 0.081511
0.400000 0.081511
0.500000 0.081511
0.600000 0.081511
0.700000 0.081511
0.800000 0.081511
0.900000 0.081511
1.000000 0.081511
1.100000 0.081511
1.200000 0.081511
1.300000 0.081511
1.400000 0.081511
1.500000 0.081511
1.600000 0.081511
1.700000 0.081511
1.800000 0.081511
1.900000 0.081511
2.000000 0.081511
2.100000 0.081511
2.200000 0.081511
2.300000 0.081511
2.400000 0.081511
2.500000 0.081511
2.600000 0.081511
2.700000 0.081511
2.800000 0.081511
2.900000 0.081511
3.000000 0.081511
3.100000 0.108088
3.200000 0.134664
3.300000 0.161241
3.400000 0.187817
3.500000 0.214394
3.600000 0.240970
3.700000 0.267547
3.800000 0.294123
3.900000 0.320700
4.000000 0.347276
4.100000 0.373853
4.200000 0.400429
4.300000 0.427006
4.400000 0.453582
4.500000 0.480159
4.600000 0.506735
4.700000 0.533312
4.800000 0.559888
4.900000 0.586465
5.000000 0.613042
0.000000 0.098254
0.100000 0.098254
0.200000 0.098254
0.300000 0.098254
0.400000 0.098254
0.500000 0.098254
0.600000 0.098254
0.700000 0.098254
0.800000 0.098254
0.900000 0.098254
1.000000 0.098254
1.100000 0.098254
1.200000 0.098254
1.300000 0.098254
1.400000 0.098254
1.500000 0.098254
1.600000 0.098254
1.700000 0.098254
1.800000 0.098254
1.900000 0.098254
2.000000 0.098254
2.100000 0.098254
2.200000 0.098254
2.300000 0.098254
2.400000 0.098254
2.500000 0.098254
2.600000 0.098254
2.700000 0.098254
2.800000 0.098254
2.900000 0.098254
3.000000 0.098254
3.100000 0.124786
3.200000 0.151317
3.300000 0.177849
3.400000 0.204381
3.500000 0.230912
3.600000 0.257444
3.700000 0.283976
3.800000 0.310507
3.900000 0.337039
4.000000 0.363571
4.100000 0.390102
4.200000 0.416634
4.300000 0.443166
4.400000 0.469697
4.500000 0.496229
4.600000 0.522761
4.700000 0.549292
4.800000 0.575824
4.900000 0.602355
5.000000 0.628887
0.000000 0.116671
0.100000 0.116671
0.200000 0.116671
0.300000 0.116671
0.400000 0.116671
0.500000 0.116671
0.600000 0.116671
0.700000 0.116671
0.800000 0.116671
0.900000 0.116671
1.000000 0.116671
1.100000 0.116671
1.200000 0.116671
1.300000 0.116671
1.400000 0.116671
1.500000 0.116671
1.600000 0.116671
1.700000 0.116671
1.800000 0.116671
1.900000 0.116671
2.000000 0.116671
2.100000 0.116671
2.200000 0.116671
2.300000 0.116671
2.400000 0.116671
2.500000 0.116671
2.600000 0.116671
2.700000 0.116671
2.800000 0.116671
2.900000 0.116671
3.000000 0.116671
3.100000 0.143154
3.200000 0.169636
3.300000 0.196118
3.400000 0.222601
3.500000 0.249083
3.600000 0.275565
3.700000 0.302047
3.800000 0.328530
3.900000 0.355012
4.000000 0.381494
4.100000 0.407977
4.200000 0.434459
4.300000 0.460941
4.400000 0.487424
4.500000 0.513906
4.600000 0.540388
4.700000 0.566870
4.800000 0.593353
4.900000 0.619835
5.000000 0.646317
0.000000 0.136930
0.100000 0.136930
0.200000 0.136930
0.300000 0.136930
0.400000 0.136930
0.500000 0.136930
0.600000 0.136930
0.700000 0.136930
0.800000 0.136930
0.900000 0.136930
1.000000 0.136930
1.100000 0.136930
1.200000 0.136930
1.300000 0.136930
1.400000 0.136930
1.500000 0.136930
1.600000 0.136930
1.700000 0.136930
1.800000 0.136930
1.900000 0.136930
2.000000 0.136930
2.100000 0.136930
2.200000 0.136930
2.300000 0.136930
2.400000 0.136930
2.500000 0.136930
2.600000 0.136930
2.700000 0.136930
2.800000 0.136930
2.900000 0.136930
3.000000 0.136930
3.100000 0.163358
3.200000 0.189786
3.300000 0.216214
3.400000 0.242642
3.500000 0.269070
3.600000 0.295498
3.700000 0.321926
3.800000 0.348354
3.900000 0.374782
4.000000 0.401210
4.100000 0.427638
4.200000 0.454066
4.300000 0.480494
4.400000 0.506922
4.500000 0.533350
4.600000 0.559778
4.700000 0.586206
4.800000 0.612635
4.900000 0.639063
5.000000 0.665491
0.000000 0.159215
0.100000 0.159215
0.200000 0.159215
0.300000 0.159215
0.400000 0.159215
0.500000 0.159215
0.600000 0.159215
0.700000 0.159215
0.800000 0.159215
0.900000 0.159215
1.000000 0.159215
1.100000 0.159215
1.200000 0.159215
1.300000 0.159215
1.400000 0.159215
1.500000 0.159215
1.600000 0.159215
1.700000 0.159215
1.800000 0.159215
1.900000 0.159215
2.000000 0.159215
2.100000 0.159215
2.200000 0.159215
2.300000 0.159215
2.400000 0.159215
2.500000 0.159215
2.600000 0.159215
2.700000 0.159215
2.800000 0.159215
2.900000 0.159215
3.000000 0.159215
3.100000 0.185583
3.200000 0.211952
3.300000 0.238320
3.400000 0.264688
3.500000 0.291056
3.600000 0.317425
3.700000 0.343793
3.800000 0.370161
3.900000 0.396530
4.000000 0.422898
4.100000 0.449266
4.200000 0.475635
4.300000 0.502003
4.400000 0.528371
4.500000 0.554740
4.600000 0.581108
4.700000 0.607476
4.800000 0.633844
4.900000 0.660213
5.000000 0.686581
0.000000 0.183728
0.100000 0.183728
0.200000 0.183728
0.300000 0.183728
0.400000 0.183728
0.500000 0.183728
0.600000 0.183728
0.700000 0.183728
0.800000 0.183728
0.900000 0.183728
1.000000 0.183728
1.100000 0.183728
1.200000 0.183728
1.300000 0.183728
1.400000 0.183728
1.500000 0.183728
1.600000 0.183728
1.700000 0.183728
1.800000 0.183728
1.900000 0.183728
2.000000 0.183728
2.100000 0.183728
2.200000 0.183728
2.300000 0.183728
2.400000 0.183728
2.500000 0.183728
2.600000 0.183728
2.700000 0.183728
2.800000 0.183728
2.900000 0.183728
3.000000 0.183728
3.100000 0.210031
3.200000 0.236333
3.300000 0.262636
3.400000 0.288939
3.500000 0.315241
3.600000 0.341544
3.700000 0.367847
3.800000 0.394149
3.900000 0.420452
4.000000 0.446754
4.100000 0.473057
4.200000 0.499360
4.300000 0.525662
4.400000 0.551965
4.500000 0.578268
4.600000 0.604570
4.700000 0.630873
4.800000 0.657175
4.900000 0.683478
5.000000 0.709781
0.000000 0.210693
0.100000 0.210693
0.200000 0.210693
0.300000 0.210693
0.400000 0.210693
0.500000 0.210693
0.600000 0.210693
0.700000 0.210693
0.800000 0.210693
0.900000 0.210693
1.000000 0.210693
1.100000 0.210693
1.200000 0.210693
1.300000 0.210693
1.400000 0.210693
1.500000 0.210693
1.600000 0.210693
1.700000 0.210693
1.800000 0.210693
1.900000 0.210693
2.000000 0.210693
2.100000 0.210693
2.200000 0.210693
2.300000 0.210693
2.400000 0.210693
2.500000 0.210693
2.600000 0.210693
2.700000 0.210693
2.800000 0.210693
2.900000 0.210693
3.000000 0.210693
3.100000 0.236923
3.200000 0.263154
3.300000 0.289384
3.400000 0.315614
3.500000 0.341845
3.600000 0.368075
3.700000 0.394305
3.800000 0.420536
3.900000 0.446766
4.000000 0.472996
4.100000 0.499227
4.200000 0.525457
4.300000 0.551688
4.400000 0.577918
4.500000 0.604148
4.600000 0.630379
4.700000 0.656609
4.800000 0.682839
4.900000 0.709070
5.000000 0.735300
0.000000 0.240354
0.100000 0.240354
0.200000 0.240354
0.300000 0.240354
0.400000 0.240354
0.500000 0.240354
0.600000 0.240354
0.700000 0.240354
0.800000 0.240354
0.900000 0.240354
1.000000 0.240354
1.100000 0.240354
1.200000 0.240354
1.300000 0.240354
1.400000 0.240354
1.500000 0.240354
1.600000 0.240354
1.700000 0.240354
1.800000 0.240354
1.900000 0.240354
2.000000 0.240354
2.100000 0.240354
2.200000 0.240354
2.300000 0.240354
2.400000 0.240354
2.500000 0.240354
2.600000 0.240354
2.700000 0.240354
2.800000 0.240354
2.900000 0.240354
3.000000 0.240354
3.100000 0.266505
3.200000 0.292656
3.300000 0.318806
3.400000 0.344957
3.500000 0.371108
3.600000 0.397259
3.700000 0.423410
3.800000 0.449561
3.900000 0.475712
4.000000 0.501863
4.100000 0.528014
4.200000 0.554165
4.300000 0.580315
4.400000 0.606466
4.500000 0.632617
4.600000 0.658768
4.700000 0.684919
4.800000 0.711070
4.900000 0.737221
5.000000 0.763372
0.000000 0.272981
0.100000 0.272981
0.200000 0.272981
0.300000 0.272981
0.400000 0.272981
0.500000 0.272981
0.600000 0.272981
0.700000 0.272981
0.800000 0.272981
0.900000 0.272981
1.000000 0.272981
1.100000 0.272981
1.200000 0.272981
1.300000 0.272981
1.400000 0.272981
1.500000 0.272981
1.600000 0.272981
1.700000 0.272981
1.800000 0.272981
1.900000 0.272981
2.000000 0.272981
2.100000 0.272981
2.200000 0.272981
2.300000 0.272981
2.400000 0.272981
2.500000 0.272981
2.600000 0.272981
2.700000 0.272981
2.800000 0.272981
2.900000 0.272981
3.000000 0.272981
3.100000 0.299044
3.200000 0.325108
3.300000 0.351171
3.400000 0.377235
3.500000 0.403298
3.600000 0.429362
3.700000 0.455425
3.800000 0.481489
3.900000 0.507552
4.000000 0.533616
4.100000 0.559679
4.200000 0.585743
4.300000 0.611806
4.400000 0.637869
4.500000 0.663933
4.600000 0.689996
4.700000 0.716060
4.800000 0.742123
4.900000 0.768187
5.000000 0.794250
0.000000 0.308871
0.100000 0.308871
0.200000 0.308871
0.300000 0.308871
0.400000 0.308871
0.500000 0.308871
0.600000 0.308871
0.700000 0.308871
0.800000 0.308871
0.900000 0.308871
1.000000 0.308871
1.100000 0.308871
1.200000 0.308871
1.300000 0.308871
1.400000 0.308871
1.500000 0.308871
1.600000 0.308871
1.700000 0.308871
1.800000 0.308871
1.900000 0.308871
2.000000 0.308871
2.100000 0.308871
2.200000 0.308871
2.300000 0.308871
2.400000 0.308871
2.500000 0.308871
2.600000 0.308871
2.700000 0.308871
2.800000 0.308871
2.900000 0.308871
3.000000 0.308871
3.100000 0.334838
3.200000 0.360805
3.300000 0.386773
3.400000 0.412740
3.500000 0.438707
3.600000 0.464675
3.700000 0.490642
3.800000 0.516609
3.900000 0.542576
4.000000 0.568544
4.100000 0.594511
4.200000 0.620478
4.300000 0.646446
4.400000 0.672413
4.500000 0.698380
4.600000 0.724348
4.700000 0.750315
4.800000 0.776282
4.900000 0.802249
5.000000 0.828217
0.000000 0.348350
0.100000 0.348350
0.200000 0.348350
0.300000 0.348350
0.400000 0.348350
0.500000 0.348350
0.600000 0.348350
0.700000 0.348350
0.800000 0.348350
0.900000 0.348350
1.000000 0.348350
1.100000 0.348350
1.200000 0.348350
1.300000 0.348350
1.400000 0.348350
1.500000 0.348350
1.600000 0.348350
1.700000 0.348350
1.800000 0.348350
1.900000 0.348350
2.000000 0.348350
2.100000 0.348350
2.200000 0.348350
2.300000 0.348350
2.400000 0.348350
2.500000 0.348350
2.600000 0.348350
2.700000 0.348350
2.800000 0.348350
2.900000 0.348350
3.000000 0.348350
3.100000 0.374211
3.200000 0.400073
3.300000 0.425934
3.400000 0.451796
3.500000 0.477657
3.600000 0.503519
3.700000 0.529380
3.800000 0.555242
3.900000 0.581103
4.000000 0.606965
4.100000 0.632826
4.200000 0.658688
4.300000 0.684549
4.400000 0.710411
4.500000 0.736272
4.600000 0.762134
4.700000 0.787995
4.800000 0.813857
4.900000 0.839718
5.000000 0.865580
0.000000 0.391776
0.100000 0.391776
0.200000 0.391776
0.300000 0.391776
0.400000 0.391776
0.500000 0.391776
0.600000 0.391776
0.700000 0.391776
0.800000 0.391776
0.900000 0.391776
1.000000 0.391776
1.100000 0.391776
1.200000 0.391776
1.300000 0.391776
1.400000 0.391776
1.500000 0.391776
1.600000 0.391776
1.700000 0.391776
1.800000 0.391776
1.900000 0.391776
2.000000 0.391776
2.100000 0.391776
2.200000 0.391776
2.300000 0.391776
2.400000 0.391776
2.500000 0.391776
2.600000 0.391776
2.700000 0.391776
2.800000 0.391776
2.900000 0.391776
3.000000 0.391776
3.100000 0.417521
3.200000 0.443267
3.300000 0.469012
3.400000 0.494757
3.500000 0.520502
3.600000 0.546247
3.700000 0.571992
3.800000 0.597738
3.900000 0.623483
4.000000 0.649228
4.100000 0.674973
4.200000 0.700718
4.300000 0.726463
4.400000 0.752208
4.500000 0.777954
4.600000 0.803699
4.700000 0.829444
4.800000 0.855189
4.900000 0.880934
5.000000 0.906679
0.000000 0.439546
0.100000 0.439546
0.200000 0.439546
0.300000 0.439546
0.400000 0.439546
0.500000 0.439546
0.600000 0.439546
0.700000 0.439546
0.800000 0.439546
0.900000 0.439546
1.000000 0.439546
1.100000 0.439546
1.200000 0.439546
1.300000 0.439546
1.400000 0.439546
1.500000 0.439546
1.600000 0.439546
1.700000 0.439546
1.800000 0.439546
1.900000 0.439546
2.000000 0.439546
2.100000 0.439546
2.200000 0.439546
2.300000 0.439546
2.400000 0.439546
2.500000 0.439546
2.600000 0.439546
2.700000 0.439546
2.800000 0.439546
2.900000 0.439546
3.000000 0.439546
3.100000 0.465163
3.200000 0.490780
3.300000 0.516397
3.400000 0.542014
3.500000 0.567631
3.600000 0.593249
3.700000 0.618866
3.800000 0.644483
3.900000 0.670100
4.000000 0.695717
4.100000 0.721334
4.200000 0.746952
4.300000 0.772569
4.400000 0.798186
4.500000 0.823803
4.600000 0.849420
4.700000 0.875037
4.800000 0.900655
4.900000 0.926272
5.000000 0.951889
0.000000 0.492092
0.100000 0.492092
0.200000 0.492092
0.300000 0.492092
0.400000 0.492092
0.500000 0.492092
0.600000 0.492092
0.700000 0.492092
0.800000 0.492092
0.900000 0.492092
1.000000 0.492092
1.100000 0.492092
1.200000 0.492092
1.300000 0.492092
1.400000 0.492092
1.500000 0.492092
1.600000 0.492092
1.700000 0.492092
1.800000 0.492092
1.900000 0.492092
2.000000 0.492092
2.100000 0.492092
2.200000 0.492092
2.300000 0.492092
2.400000 0.492092
2.500000 0.492092
2.600000 0.492092
2.700000 0.492092
2.800000 0.492092
2.900000 0.492092
3.000000 0.492092
3.100000 0.517568
3.200000 0.543045
3.300000 0.568521
3.400000 0.593997
3.500000 0.619474
3.600000 0.644950
3.700000 0.670426
3.800000 0.695903
3.900000 0.721379
4.000000 0.746856
4.100000 0.772332
4.200000 0.797808
4.300000 0.823285
4.400000 0.848761
4.500000 0.874237
4.600000 0.899714
4.700000 0.925190
4.800000 0.950666
4.900000 0.976143
5.000000 1.001619
0.000000 0.549893
0.100000 0.549893
0.200000 0.549893
0.300000 0.549893
0.400000 0.549893
0.500000 0.549893
0.600000 0.549893
0.700000 0.549893
0.800000 0.549893
0.900000 0.549893
1.000000 0.549893
1.100000 0.549893
1.200000 0.549893
1.300000 0.549893
1.400000 0.549893
1.500000 0.549893
1.600000 0.549893
1.700000 0.549893
1.800000 0.549893
1.900000 0.549893
2.000000 0.549893
2.100000 0.549893
2.200000 0.549893
2.300000 0.549893
2.400000 0.549893
2.500000 0.549893
2.600000 0.549893
2.700000 0.549893
2.800000 0.549893
2.900000 0.549893
3.000000 0.549893
3.100000 0.575214
3.200000 0.600536
3.300000 0.625857
3.400000 0.651179
3.500000 0.676500
3.600000 0.701822
3.700000 0.727143
3.800000 0.752465
3.900000 0.777786
4.000000 0.803108
4.100000 0.828429
4.200000 0.853751
4.300000 0.879072
4.400000 0.904394
4.500000 0.929715
4.600000 0.955037
4.700000 0.980358
4.800000 1.005680
4.900000 1.031001
5.000000 1.056323
0.000000 0.613474
0.100000 0.613474
0.200000 0.613474
0.300000 0.613474
0.400000 0.613474
0.500000 0.613474
0.600000 0.613474
0.700000 0.613474
0.800000 0.613474
0.900000 0.613474
1.000000 0.613474
1.100000 0.613474
1.200000 0.613474
1.300000 0.613474
1.400000 0.613474
1.500000 0.613474
1.600000 0.613474
1.700000 0.613474
1.800000 0.613474
1.900000 0.613474
2.000000 0.613474
2.100000 0.613474
2.200000 0.613474
2.300000 0.613474
2.400000 0.613474
2.500000 0.613474
2.600000 0.613474
2.700000 0.613474
2.800000 0.613474
2.900000 0.613474
3.000000 0.613474
3.100000 0.638625
3.200000 0.663776
3.300000 0.688927
3.400000 0.714078
3.500000 0.739229
3.600000 0.764381
3.700000 0.789532
3.800000 0.814683
3.900000 0.839834
4.000000 0.864985
4.100000 0.890136
4.200000 0.915287
4.300000 0.940438
4.400000 0.965590
4.500000 0.990741
4.600000 1.015892
4.700000 1.041043
4.800000 1.066194
4.900000 1.091345
5.000000 1.116496
0.000000 0.683413
0.100000 0.683413
0.200000 0.683413
0.300000 0.683413
0.400000 0.683413
0.500000 0.683413
0.600000 0.683413
0.700000 0.683413
0.800000 0.683413
0.900000 0.683413
1.000000 0.683413
1.100000 0.683413
1.200000 0.683413
1.300000 0.683413
1.400000 0.683413
1.500000 0.683413
1.600000 0.683413
1.700000 0.683413
1.800000 0.683413
1.900000 0.683413
2.000000 0.683413
2.100000 0.683413
2.200000 0.683413
2.300000 0.683413
2.400000 0.683413
2.500000 0.683413
2.600000 0.683413
2.700000 0.683413
2.800000 0.683413
2.900000 0.683413
3.000000 0.683413
3.100000 0.708377
3.200000 0.733340
3.300000 0.758304
3.400000 0.783268
3.500000 0.808232
3.600000 0.833195
3.700000 0.858159
3.800000 0.883123
3.900000 0.908086
4.000000 0.933050
4.100000 0.958014
4.200000 0.982978
4.300000 1.007941
4.400000 1.032905
4.500000 1.057869
4.600000 1.082833
4.700000 1.107796
4.800000 1.132760
4.900000 1.157724
5.000000 1.182687
0.000000 0.760346
0.100000 0.760346
0.200000 0.760346
0.300000 0.760346
0.400000 0.760346
0.500000 0.760346
0.600000 0.760346
0.700000 0.760346
0.800000 0.760346
0.900000 0.760346
1.000000 0.760346
1.100000 0.760346
1.200000 0.760346
1.300000 0.760346
1.400000 0.760346
1.500000 0.760346
1.600000 0.760346
1.700000 0.760346
1.800000 0.760346
1.900000 0.760346
2.000000 0.760346
2.100000 0.760346
2.200000 0.760346
2.300000 0.760346
2.400000 0.760346
2.500000 0.760346
2.600000 0.760346
2.700000 0.760346
2.800000 0.760346
2.900000 0.760346
3.000000 0.760346
3.100000 0.785104
3.200000 0.809861
3.300000 0.834619
3.400000 0.859376
3.500000 0.884134
3.600000 0.908892
3.700000 0.933649
3.800000 0.958407
3.900000 0.983164
4.000000 1.007922
4.100000 1.032679
4.200000 1.057437
4.300000 1.082195
4.400000 1.106952
4.500000 1.131710
4.600000 1.156467
4.700000 1.181225
4.800000 1.205982
4.900000 1.230740
5.000000 1.255498
0.000000 0.844972
0.100000 0.844972
0.200000 0.844972
0.300000 0.844972
0.400000 0.844972
0.500000 0.844972
0.600000 0.844972
0.700000 0.844972
0.800000 0.844972
0.900000 0.844972
1.000000 0.844972
1.100000 0.844972
1.200000 0.844972
1.300000 0.844972
1.400000 0.844972
1.500000 0.844972
1.600000 0.844972
1.700000 0.844972
1.800000 0.844972
1.900000 0.844972
2.000000 0.844972
2.100000 0.844972
2.200000 0.844972
2.300000 0.844972
2.400000 0.844972
2.500000 0.844972
2.600000 0.844972
2.700000 0.844972
2.800000 0.844972
2.900000 0.844972
3.000000 0.844972
3.100000 0.869503
3.200000 0.894034
3.300000 0.918565
3.400000 0.943096
3.500000 0.967627
3.600000 0.992157
3.700000 1.016688
3.800000 1.041219
3.900000 1.065750
4.000000 1.090281
4.100000 1.114811
4.200000 1.139342
4.300000 1.163873
4.400000 1.188404
4.500000 1.212935
4.600000 1.237466
4.700000 1.261996
4.800000 1.286527
4.900000 1.311058
5.000000 1.335589
0.000000 0.938061
0.100000 0.938061
0.200000 0.938061
0.300000 0.938061
0.400000 0.938061
0.500000 0.938061
0.600000 0.938061
0.700000 0.938061
0.800000 0.938061
0.900000 0.938061
1.000000 0.938061
1.100000 0.938061
1.200000 0.938061
1.300000 0.938061
1.400000 0.938061
1.500000 0.938061
1.600000 0.938061
1.700000 0.938061
1.800000 0.938061
1.900000 0.938061
2.000000 0.938061
2.100000 0.938061
2.200000 0.938061
2.300000 0.938061
2.400000 0.938061
2.500000 0.938061
2.600000 0.938061
2.700000 0.938061
2.800000 0.938061
2.900000 0.938061
3.000000 0.938061
3.100000 0.962343
3.200000 0.986624
3.300000 1.010906
3.400000 1.035187
3.500000 1.059468
3.600000 1.083750
3.700000 1.108031
3.800000 1.132313
3.900000 1.156594
4.000000 1.180875
4.100000 1.205157
4.200000 1.229438
4.300000 1.253719
4.400000 1.278001
4.500000 1.302282
4.600000 1.326564
4.700000 1.350845
4.800000 1.375126
4.900000 1.399408
5.000000 1.423689
0.000000 1.040459
0.100000 1.040459
0.200000 1.040459
0.300000 1.040459
0.400000 1.040459
0.500000 1.040459
0.600000 1.040459
0.700000 1.040459
0.800000 1.040459
0.900000 1.040459
1.000000 1.040459
1.100000 1.040459
1.200000 1.040459
1.300000 1.040459
1.400000 1.040459
1.500000 1.040459
1.600000 1.040459
1.700000 1.040459
1.800000 1.040459
1.900000 1.040459
2.000000 1.040459
2.100000 1.040459
2.200000 1.040459
2.300000 1.040459
2.400000 1.040459
2.500000 1.040459
2.600000 1.040459
2.700000 1.040459
2.800000 1.040459
2.900000 1.040459
3.000000 1.040459
3.100000 1.064466
3.200000 1.088473
3.300000 1.112480
3.400000 1.136487
3.500000 1.160494
3.600000 1.184501
3.700000 1.208508
3.800000 1.232515
3.900000 1.256522
4.000000 1.280529
4.100000 1.304536
4.200000 1.328543
4.300000 1.352550
4.400000 1.376558
4.500000 1.400565
4.600000 1.424572
4.700000 1.448579
4.800000 1.472586
4.900000 1.496593
5.000000 1.520600
0.000000 1.153097
0.100000 1.153097
0.200000 1.153097
0.300000 1.153097
0.400000 1.153097
0.500000 1.153097
0.600000 1.153097
0.700000 1.153097
0.800000 1.153097
0.900000 1.153097
1.000000 1.153097
1.100000 1.153097
1.200000 1.153097
1.300000 1.153097
1.400000 1.153097
1.500000 1.153097
1.600000 1.153097
1.700000 1.153097
1.800000 1.153097
1.900000 1.153097
2.000000 1.153097
2.100000 1.153097
2.200000 1.153097
2.300000 1.153097
2.400000 1.153097
2.500000 1.153097
2.600000 1.153097
2.700000 1.153097
2.800000 1.153097
2.900000 1.153097
3.000000 1.153097
3.100000 1.176802
3.200000 1.200507
3.300000 1.224213
3.400000 1.247918
3.500000 1.271623
3.600000 1.295328
3.700000 1.319033
3.800000 1.342739
3.900000 1.366444
4.000000 1.390149
4.100000 1.413854
4.200000 1.437559
4.300000 1.461265
4.400000 1.484970
4.500000 1.508675
4.600000 1.532380
4.700000 1.556085
4.800000 1.579791
4.900000 1.603496
5.000000 1.627201
0.000000 1.276998
0.100000 1.276998
0.200000 1.276998
0.300000 1.276998
0.400000 1.276998
0.500000 1.276998
0.600000 1.276998
0.700000 1.276998
0.800000 1.276998
0.900000 1.276998
1.000000 1.276998
1.100000 1.276998
1.200000 1.276998
1.300000 1.276998
1.400000 1.276998
1.500000 1.276998
1.600000 1.276998
1.700000 1.276998
1.800000 1.276998
1.900000 1.276998
2.000000 1.276998
2.100000 1.276998
2.200000 1.276998
2.300000 1.276998
2.400000 1.276998
2.500000 1.276998
2.600000 1.276998
2.700000 1.276998
2.800000 1.276998
2.900000 1.276998
3.000000 1.276998
3.100000 1.300372
3.200000 1.323745
3.300000 1.347118
3.400000 1.370491
3.500000 1.393864
3.600000 1.417238
3.700000 1.440611
3.800000 1.463984
3.900000 1.487357
4.000000 1.510730
4.100000 1.534104
4.200000 1.557477
4.300000 1.580850
4.400000 1.604223
4.500000 1.627597
4.600000 1.650970
4.700000 1.674343
4.800000 1.697716
4.900000 1.721089
5.000000 1.744463
0.000000 1.413290
0.100000 1.413290
0.200000 1.413290
0.300000 1.413290
0.400000 1.413290
0.500000 1.413290
0.600000 1.413290
0.700000 1.413290
0.800000 1.413290
0.900000 1.413290
1.000000 1.413290
1.100000 1.413290
1.200000 1.413290
1.300000 1.413290
1.400000 1.413290
1.500000 1.413290
1.600000 1.413290
1.700000 1.413290
1.800000 1.413290
1.900000 1.413290
2.000000 1.413290
2.100000 1.413290
2.200000 1.413290
2.300000 1.413290
2.400000 1.413290
2.500000 1.413290
2.600000 1.413290
2.700000 1.413290
2.800000 1.413290
2.900000 1.413290
3.000000 1.413290
3.100000 1.436298
3.200000 1.459306
3.300000 1.482314
3.400000 1.505322
3.500000 1.528330
3.600000 1.551338
3.700000 1.574346
3.800000 1.597354
3.900000 1.620362
4.000000 1.643370
4.100000 1.666378
4.200000 1.689386
4.300000 1.712394
4.400000 1.735402
4.500000 1.758410
4.600000 1.781418
4.700000 1.804426
4.800000 1.827434
4.900000 1.850442
5.000000 1.873450
0.000000 1.563211
0.100000 1.563211
0.200000 1.563211
0.300000 1.563211
0.400000 1.563211
0.500000 1.563211
0.600000 1.563211
0.700000 1.563211
0.800000 1.563211
0.900000 1.563211
1.000000 1.563211
1.100000 1.563211
1.200000 1.563211
1.300000 1.563211
1.400000 1.563211
1.500000 1.563211
1.600000 1.563211
1.700000 1.563211
1.800000 1.563211
1.900000 1.563211
2.000000 1.563211
2.100000 1.563211
2.200000 1.563211
2.300000 1.563211
2.400000 1.563211
2.500000 1.563211
2.600000 1.563211
2.700000 1.563211
2.800000 1.563211
2.900000 1.563211
3.000000 1.563211
3.100000 1.585817
3.200000 1.608423
3.300000 1.631030
3.400000 1.653636
3.500000 1.676242
3.600000 1.698849
3.700000 1.721455
3.800000 1.744061
3.900000 1.766667
4.000000 1.789274
4.100000 1.811880
4.200000 1.834486
4.300000 1.857093
4.400000 1.879699
4.500000 1.902305
4.600000 1.924912
4.700000 1.947518
4.800000 1.970124
4.900000 1.992731
5.000000 2.015337
0.000000 1.728123
0.100000 1.728123
0.200000 1.728123
0.300000 1.728123
0.400000 1.728123
0.500000 1.728123
0.600000 1.728123
0.700000 1.728123
0.800000 1.728123
0.900000 1.728123
1.000000 1.728123
1.100000 1.728123
1.200000 1.728123
1.300000 1.728123
1.400000 1.728123
1.500000 1.728123
1.600000 1.728123
1.700000 1.728123
1.800000 1.728123
1.900000 1.728123
2.000000 1.728123
2.100000 1.728123
2.200000 1.728123
2.300000 1.728123
2.400000 1.728123
2.500000 1.728123
2.600000 1.728123
2.700000 1.728123
2.800000 1.728123
2.900000 1.728123