TITLE = "vncfd field"
VARIABLES = "X", "Y", "rho", "u", "v", "p", "Mach", "T"
ZONE T="1", I=157, J=51, DATAPACKING=BLOCK, VARLOCATION=([3,4,5,6,7,8]=CELLCENTERED)
0.000000 0.000000 0.000000 0.000000 0.000000 0.000000 0.000000 0.000000 0.000000 -0.225000 -0.450000 -0.675000 -0.900000 -1.125000 -1.350000 -1.575000 -1.800000 -2.025000 -2.250000 -2.475000 -2.700000 -2.925000 -3.150000 -3.375000 -3.600000 -3.825000 -4.050000 -4.275000 -4.500000 -4.725000 -4.950000 -5.175000 -5.400000 -5.625000 -5.850000 -6.075000 -6.300000 -6.525000 -6.750000 -6.975000 -7.200000 -7.425000 -7.650000 -7.875000 -8.100000 -8.325000 -8.550000 -8.775000 -9.000000 -9.250000 -9.500000 -9.750000 -10.000000 -10.250000 -10.500000 -10.750000 -11.000000 -11.112000 -11.219000 -11.323000 -11.422000 -11.517000 -11.608000 -11.694000 -11.776000 -11.854000 -11.927000 -11.996000 -12.061000 -12.121000 -12.177000 -12.229000 -12.276000 -12.318000 -12.356000 -12.390000 -12.419000 -12.444000 -12.464000 -12.480000 -12.491000 -12.498000 -12.500000 -12.498000 -12.491000 -12.480000 -12.464000 -12.444000 -12.419000 -12.390000 -12.356000 -12.318000 -12.276000 -12.229000 -12.177000 -12.121000 -12.061000 -11.996000 -11.927000 -11.854000 -11.776000 -11.694000 -11.608000 -11.517000 -11.422000 -11.323000 -11.219000 -11.112000 -11.000000 -10.750000 -10.500000 -10.250000 -10.000000 -9.750000 -9.500000 -9.250000 -9.000000 -8.775000 -8.550000 -8.325000 -8.100000 -7.875000 -7.650000 -7.425000 -7.200000 -6.975000 -6.750000 -6.525000 -6.300000 -6.075000 -5.850000 -5.625000 -5.400000 -5.175000 -4.950000 -4.725000 -4.500000 -4.275000 -4.050000 -3.825000 -3.600000 -3.375000 -3.150000 -2.925000 -2.700000 -2.475000 -2.250000 -2.025000 -1.800000 -1.575000 -1.350000 -1.125000 -0.900000 -0.675000 -0.450000 -0.225000 0.000000 0.008774 0.009932 0.010032 0.010035 0.010035 0.010035 0.010032 0.009932 0.008774 -0.219150 -0.444140 -0.669140 -0.894140 -1.119100 -1.344100 -1.569100 -1.794100 -2.019100 -2.244100 -2.469100 -2.694100 -2.919100 -3.144100 -3.369100 -3.594100 -3.819100 -4.044100 -4.269100 -4.494100 -4.719100 -4.944100 -5.169100 -5.394100 -5.619100 -5.844100 -6.069100 -6.294100 -6.519100 -6.744100 -6.969100 -7.194100 -7.419100 -7.644100 -7.869100 -8.094100 -8.319100 -8.544100 -8.769200 -8.996900 -9.250000 -9.500000 -9.750000 -10.000000 -10.250000 -10.500000 -10.750000 -11.006000 -11.121000 -11.229000 -11.332000 -11.431000 -11.526000 -11.617000 -11.704000 -11.786000 -11.864000 -11.937000 -12.006000 -12.071000 -12.131000 -12.187000 -12.238000 -12.285000 -12.328000 -12.366000 -12.400000 -12.429000 -12.454000 -12.474000 -12.490000 -12.501000 -12.508000 -12.510000 -12.508000 -12.501000 -12.490000 -12.474000 -12.454000 -12.429000 -12.400000 -12.366000 -12.328000 -12.285000 -12.238000 -12.187000 -12.131000 -12.071000 -12.006000 -11.937000 -11.864000 -11.786000 -11.704000 -11.617000 -11.526000 -11.431000 -11.332000 -11.229000 -11.121000 -11.006000 -10.750000 -10.500000 -10.250000 -10.000000 -9.750000 -9.500000 -9.250000 -8.996900 -8.769200 -8.544100 -8.319100 -8.094100 -7.869100 -7.644100 -7.419100 -7.194100 -6.969100 -6.744100 -6.519100 -6.294100 -6.069100 -5.844100 -5.619100 -5.394100 -5.169100 -4.944100 -4.719100 -4.494100 -4.269100 -4.044100 -3.819100 -3.594100 -3.369100 -3.144100 -2.919100 -2.694100 -2.469100 -2.244100 -2.019100 -1.794100 -1.569100 -1.344100 -1.119100 -0.894140 -0.669140 -0.444140 -0.219150 0.008774 0.018723 0.021761 0.022122 0.022135 0.022135 0.022135 0.022122 0.021761 0.018723 -0.212110 -0.437100 -0.662100 -0.887100 -1.112100 -1.337100 -1.562100 -1.787100 -2.012100 -2.237100 -2.462100 -2.687100 -2.912100 -3.137100 -3.362100 -3.587100 -3.812100 -4.037100 -4.262100 -4.487100 -4.712100 -4.937100 -5.162100 -5.387100 -5.612100 -5.837100 -6.062100 -6.287100 -6.512100 -6.737100 -6.962100 -7.187100 -7.412100 -7.637100 -7.862100 -8.087100 -8.312100 -8.537100 -8.762300 -8.993200 -9.249800 -9.500000 -9.750000 -10.000000 -10.250000 -10.500000 -10.750000 -11.013000 -11.132000 -11.240000 -11.343000 -11.443000 -11.538000 -11.629000 -11.715000 -11.797000 -11.875000 -11.949000 -12.018000 -12.082000 -12.143000 -12.199000 -12.250000 -12.297000 -12.340000 -12.378000 -12.412000 -12.441000 -12.466000 -12.486000 -12.502000 -12.513000 -12.520000 -12.522000 -12.520000 -12.513000 -12.502000 -12.486000 -12.466000 -12.441000 -12.412000 -12.378000 -12.340000 -12.297000 -12.250000 -12.199000 -12.143000 -12.082000 -12.018000 -11.949000 -11.875000 -11.797000 -11.715000 -11.629000 -11.538000 -11.443000 -11.343000 -11.240000 -11.132000 -11.013000 -10.750000 -10.500000 -10.250000 -10.000000 -9.750000 -9.500000 -9.249800 -8.993200 -8.762300 -8.537100 -8.312100 -8.087100 -7.862100 -7.637100 -7.412100 -7.187100 -6.962100 -6.737100 -6.512100 -6.287100 -6.062100 -5.837100 -5.612100 -5.387100 -5.162100 -4.937100 -4.712100 -4.487100 -4.262100 -4.037100 -3.812100 -3.587100 -3.362100 -3.137100 -2.912100 -2.687100 -2.462100 -2.237100 -2.012100 -1.787100 -1.562100 -1.337100 -1.112100 -0.887100 -0.662100 -0.437100 -0.212110 0.018723 0.029972 0.035814 0.036683 0.036729 0.036731 0.036729 0.036683 0.035814 0.029972 -0.203640 -0.428630 -0.653640 -0.878640 -1.103600 -1.328600 -1.553600 -1.778600 -2.003600 -2.228600 -2.453600 -2.678600 -2.903600 -3.128600 -3.353600 -3.578600 -3.803600 -4.028600 -4.253600 -4.478600 -4.703600 -4.928600 -5.153600 -5.378600 -5.603600 -5.828600 -6.053600 -6.278600 -6.503600 -6.728600 -6.953600 -7.178600 -7.403600 -7.628600 -7.853600 -8.078600 -8.303600 -8.528700 -8.754200 -8.988900 -9.249500 -9.500000 -9.750000 -10.000000 -10.250000 -10.500000 -10.751000 -11.021000 -11.144000 -11.253000 -11.357000 -11.456000 -11.551000 -11.642000 -11.729000 -11.811000 -11.889000 -11.962000 -12.032000 -12.096000 -12.157000 -12.213000 -12.264000 -12.311000 -12.354000 -12.392000 -12.426000 -12.455000 -12.480000 -12.500000 -12.516000 -12.527000 -12.534000 -12.536000 -12.534000 -12.527000 -12.516000 -12.500000 -12.480000 -12.455000 -12.426000 -12.392000 -12.354000 -12.311000 -12.264000 -12.213000 -12.157000 -12.096000 -12.032000 -11.962000 -11.889000 -11.811000 -11.729000 -11.642000 -11.551000 -11.456000 -11.357000 -11.253000 -11.144000 -11.021000 -10.751000 -10.500000 -10.250000 -10.000000 -9.750000 -9.500000 -9.249500 -8.988900 -8.754200 -8.528700 -8.303600 -8.078600 -7.853600 -7.628600 -7.403600 -7.178600 -6.953600 -6.728600 -6.503600 -6.278600 -6.053600 -5.828600 -5.603600 -5.378600 -5.153600 -4.928600 -4.703600 -4.478600 -4.253600 -4.028600 -3.803600 -3.578600 -3.353600 -3.128600 -2.903600 -2.678600 -2.453600 -2.228600 -2.003600 -1.778600 -1.553600 -1.328600 -1.103600 -0.878640 -0.653640 -0.428630 -0.203640 0.029972 0.042770 0.052463 0.054202 0.054331 0.054341 0.054331 0.054202 0.052463 0.042770 -0.193410 -0.418440 -0.643460 -0.868460 -1.093500 -1.318500 -1.543500 -1.768500 -1.993500 -2.218500 -2.443500 -2.668500 -2.893500 -3.118500 -3.343500 -3.568500 -3.793500 -4.018500 -4.243500 -4.468500 -4.693500 -4.918500 -5.143500 -5.368500 -5.593500 -5.818500 -6.043500 -6.268500 -6.493500 -6.718500 -6.943500 -7.168500 -7.393500 -7.618500 -7.843500 -8.068500 -8.293500 -8.518600 -8.744700 -8.983700 -9.249000 -9.499900 -9.750000 -10.000000 -10.250000 -10.500000 -10.752000 -11.030000 -11.159000 -11.269000 -11.373000 -11.472000 -11.568000 -11.659000 -11.745000 -11.828000 -11.906000 -11.979000 -12.048000 -12.113000 -12.174000 -12.230000 -12.281000 -12.328000 -12.371000 -12.409000 -12.443000 -12.472000 -12.497000 -12.517000 -12.533000 -12.544000 -12.551000 -12.553000 -12.551000 -12.544000 -12.533000 -12.517000 -12.497000 -12.472000 -12.443000 -12.409000 -12.371000 -12.328000 -12.281000 -12.230000 -12.174000 -12.113000 -12.048000 -11.979000 -11.906000 -11.828000 -11.745000 -11.659000 -11.568000 -11.472000 -11.373000 -11.269000 -11.159000 -11.030000 -10.752000 -10.500000 -10.250000 -10.000000 -9.750000 -9.499900 -9.249000 -8.983700 -8.744700 -8.518600 -8.293500 -8.068500 -7.843500 -7.618500 -7.393500 -7.168500 -6.943500 -6.718500 -6.493500 -6.268500 -6.043500 -5.818500 -5.593500 -5.368500 -5.143500 -4.918500 -4.693500 -4.468500 -4.243500 -4.018500 -3.793500 -3.568500 -3.343500 -3.118500 -2.893500 -2.668500 -2.443500 -2.218500 -1.993500 -1.768500 -1.543500 -1.318500 -1.093500 -0.868460 -0.643460 -0.418440 -0.193410 0.042770 0.057407 0.072131 0.075250 0.075561 0.075592 0.075561 0.075250 0.072131 0.057407 -0.181050 -0.406150 -0.631210 -0.856220 -1.081200 -1.306200 -1.531200 -1.756200 -1.981200 -2.206200 -2.431200 -2.656200 -2.881200 -3.106200 -3.331200 -3.556200 -3.781200 -4.006200 -4.231200 -4.456200 -4.681200 -4.906200 -5.131200 -5.356200 -5.581200 -5.806200 -6.031200 -6.256200 -6.481200 -6.706200 -6.931200 -7.156200 -7.381200 -7.606200 -7.831200 -8.056200 -8.281200 -8.506500 -8.733600 -8.977700 -9.248000 -9.499700 -9.750000 -10.000000 -10.250000 -10.500000 -10.753000 -11.040000 -11.177000 -11.288000 -11.392000 -11.492000 -11.587000 -11.678000 -11.765000 -11.847000 -11.925000 -11.999000 -12.068000 -12.133000 -12.194000 -12.250000 -12.301000 -12.349000 -12.391000 -12.430000 -12.463000 -12.493000 -12.518000 -12.538000 -12.554000 -12.565000 -12.572000 -12.574000 -12.572000 -12.565000 -12.554000 -12.538000 -12.518000 -12.493000 -12.463000 -12.430000 -12.391000 -12.349000 -12.301000 -12.250000 -12.194000 -12.133000 -12.068000 -11.999000 -11.925000 -11.847000 -11.765000 -11.678000 -11.587000 -11.492000 -11.392000 -11.288000 -11.177000 -11.040000 -10.753000 -10.500000 -10.250000 -10.000000 -9.750000 -9.499700 -9.248000 -8.977700 -8.733600 -8.506500 -8.281200 -8.056200 -7.831200 -7.606200 -7.381200 -7.156200 -6.931200 -6.706200 -6.481200 -6.256200 -6.031200 -5.806200 -5.581200 -5.356200 -5.131200 -4.906200 -4.681200 -4.456200 -4.231200 -4.006200 -3.781200 -3.556200 -3.331200 -3.106200 -2.881200 -2.656200 -2.431200 -2.206200 -1.981200 -1.756200 -1.531200 -1.306200 -1.081200 -0.856220 -0.631210 -0.406150 -0.181050 0.057407 0.074232 0.095294 0.100480 0.101160 0.101240 0.101160 0.100480 0.095294 0.074232 -0.166090 -0.391340 -0.616460 -0.841480 -1.066500 -1.291500 -1.516500 -1.741500 -1.966500 -2.191500 -2.416500 -2.641500 -2.866500 -3.091500 -3.316500 -3.541500 -3.766500 -3.991500 -4.216500 -4.441500 -4.666500 -4.891500 -5.116500 -5.341500 -5.566500 -5.791500 -6.016500 -6.241500 -6.466500 -6.691500 -6.916500 -7.141500 -7.366500 -7.591500 -7.816500 -8.041500 -8.266500 -8.492000 -8.720600 -8.970500 -9.246400 -9.499400 -9.749900 -10.000000 -10.250000 -10.501000 -10.756000 -11.052000 -11.197000 -11.311000 -11.415000 -11.515000 -11.611000 -11.702000 -11.789000 -11.871000 -11.949000 -12.023000 -12.092000 -12.157000 -12.218000 -12.274000 -12.326000 -12.373000 -12.416000 -12.454000 -12.488000 -12.517000 -12.542000 -12.562000 -12.578000 -12.590000 -12.596000 -12.599000 -12.596000 -12.590000 -12.578000 -12.562000 -12.542000 -12.517000 -12.488000 -12.454000 -12.416000 -12.373000 -12.326000 -12.274000 -12.218000 -12.157000 -12.092000 -12.023000 -11.949000 -11.871000 -11.789000 -11.702000 -11.611000 -11.515000 -11.415000 -11.311000 -11.197000 -11.052000 -10.756000 -10.501000 -10.250000 -10.000000 -9.749900 -9.499400 -9.246400 -8.970500 -8.720600 -8.492000 -8.266500 -8.041500 -7.816500 -7.591500 -7.366500 -7.141500 -6.916500 -6.691500 -6.466500 -6.241500 -6.016500 -5.791500 -5.566500 -5.341500 -5.116500 -4.891500 -4.666500 -4.441500 -4.216500 -3.991500 -3.766500 -3.541500 -3.316500 -3.091500 -2.866500 -2.641500 -2.416500 -2.191500 -1.966500 -1.741500 -1.516500 -1.291500 -1.066500 -0.841480 -0.616460 -0.391340 -0.166090 0.074232 0.093676 0.122490 0.130640 0.131990 0.132180 0.131990 0.130640 0.122490 0.093676 -0.147980 -0.373460 -0.598690 -0.823730 -1.048700 -1.273700 -1.498700 -1.723700 -1.948700 -2.173700 -2.398700 -2.623700 -2.848700 -3.073700 -3.298700 -3.523700 -3.748700 -3.973700 -4.198700 -4.423700 -4.648700 -4.873700 -5.098700 -5.323700 -5.548700 -5.773700 -5.998700 -6.223700 -6.448700 -6.673700 -6.898700 -7.123700 -7.348700 -7.573700 -7.798700 -8.023800 -8.248900 -8.474900 -8.705600 -8.962100 -9.243900 -9.498800 -9.749800 -10.000000 -10.250000 -10.502000 -10.760000 -11.066000 -11.221000 -11.338000 -11.443000 -11.543000 -11.639000 -11.730000 -11.817000 -11.900000 -11.978000 -12.052000 -12.121000 -12.186000 -12.247000 -12.303000 -12.355000 -12.402000 -12.445000 -12.483000 -12.517000 -12.547000 -12.572000 -12.592000 -12.608000 -12.619000 -12.626000 -12.628000 -12.626000 -12.619000 -12.608000 -12.592000 -12.572000 -12.547000 -12.517000 -12.483000 -12.445000 -12.402000 -12.355000 -12.303000 -12.247000 -12.186000 -12.121000 -12.052000 -11.978000 -11.900000 -11.817000 -11.730000 -11.639000 -11.543000 -11.443000 -11.338000 -11.221000 -11.066000 -10.760000 -10.502000 -10.250000 -10.000000 -9.749800 -9.498800 -9.243900 -8.962100 -8.705600 -8.474900 -8.248900 -8.023800 -7.798700 -7.573700 -7.348700 -7.123700 -6.898700 -6.673700 -6.448700 -6.223700 -5.998700 -5.773700 -5.548700 -5.323700 -5.098700 -4.873700 -4.648700 -4.423700 -4.198700 -3.973700 -3.748700 -3.523700 -3.298700 -3.073700 -2.848700 -2.623700 -2.398700 -2.173700 -1.948700 -1.723700 -1.498700 -1.273700 -1.048700 -0.823730 -0.598690 -0.373460 -0.147980 0.093676 0.116280 0.154310 0.166550 0.169070 0.169490 0.169070 0.166550 0.154310 0.116280 -0.126030 -0.351840 -0.577260 -0.802340 -1.027300 -1.252400 -1.477400 -1.702400 -1.927400 -2.152400 -2.377400 -2.602400 -2.827400 -3.052400 -3.277400 -3.502400 -3.727400 -3.952400 -4.177400 -4.402400 -4.627400 -4.852400 -5.077400 -5.302400 -5.527400 -5.752400 -5.977400 -6.202400 -6.427400 -6.652400 -6.877400 -7.102400 -7.327400 -7.552400 -7.777400 -8.002400 -8.227800 -8.454600 -8.688400 -8.952200 -9.240200 -9.497700 -9.749600 -10.000000 -10.251000 -10.504000 -10.766000 -11.081000 -11.248000 -11.369000 -11.476000 -11.577000 -11.672000 -11.764000 -11.851000 -11.934000 -12.012000 -12.086000 -12.156000 -12.221000 -12.282000 -12.338000 -12.390000 -12.437000 -12.480000 -12.519000 -12.553000 -12.582000 -12.607000 -12.627000 -12.643000 -12.655000 -12.661000 -12.664000 -12.661000 -12.655000 -12.643000 -12.627000 -12.607000 -12.582000 -12.553000 -12.519000 -12.480000 -12.437000 -12.390000 -12.338000 -12.282000 -12.221000 -12.156000 -12.086000 -12.012000 -11.934000 -11.851000 -11.764000 -11.672000 -11.577000 -11.476000 -11.369000 -11.248000 -11.081000 -10.766000 -10.504000 -10.251000 -10.000000 -9.749600 -9.497700 -9.240200 -8.952200 -8.688400 -8.454600 -8.227800 -8.002400 -7.777400 -7.552400 -7.327400 -7.102400 -6.877400 -6.652400 -6.427400 -6.202400 -5.977400 -5.752400 -5.527400 -5.302400 -5.077400 -4.852400 -4.627400 -4.402400 -4.177400 -3.952400 -3.727400 -3.502400 -3.277400 -3.052400 -2.827400 -2.602400 -2.377400 -2.152400 -1.927400 -1.702400 -1.477400 -1.252400 -1.027300 -0.802340 -0.577260 -0.351840 -0.126030 0.116280 0.142750 0.191450 0.209130 0.213540 0.214400 0.213540 0.209130 0.191450 0.142750 -0.099448 -0.325650 -0.551370 -0.776530 -1.001600 -1.226600 -1.451600 -1.676600 -1.901600 -2.126600 -2.351600 -2.576600 -2.801600 -3.026600 -3.251600 -3.476600 -3.701600 -3.926600 -4.151600 -4.376600 -4.601600 -4.826600 -5.051600 -5.276600 -5.501600 -5.726600 -5.951600 -6.176600 -6.401600 -6.626600 -6.851600 -7.076600 -7.301600 -7.526600 -7.751600 -7.976800 -8.202500 -8.430800 -8.668700 -8.940400 -9.234900 -9.495700 -9.749000 -10.000000 -10.252000 -10.507000 -10.774000 -11.099000 -11.279000 -11.407000 -11.516000 -11.617000 -11.713000 -11.804000 -11.892000 -11.975000 -12.053000 -12.128000 -12.197000 -12.263000 -12.324000 -12.380000 -12.432000 -12.479000 -12.523000 -12.561000 -12.595000 -12.625000 -12.649000 -12.670000 -12.686000 -12.697000 -12.704000 -12.706000 -12.704000 -12.697000 -12.686000 -12.670000 -12.649000 -12.625000 -12.595000 -12.561000 -12.523000 -12.479000 -12.432000 -12.380000 -12.324000 -12.263000 -12.197000 -12.128000 -12.053000 -11.975000 -11.892000 -11.804000 -11.713000 -11.617000 -11.516000 -11.407000 -11.279000 -11.099000 -10.774000 -10.507000 -10.252000 -10.000000 -9.749000 -9.495700 -9.234900 -8.940400 -8.668700 -8.430800 -8.202500 -7.976800 -7.751600 -7.526600 -7.301600 -7.076600 -6.851600 -6.626600 -6.401600 -6.176600 -5.951600 -5.726600 -5.501600 -5.276600 -5.051600 -4.826600 -4.601600 -4.376600 -4.151600 -3.926600 -3.701600 -3.476600 -3.251600 -3.026600 -2.801600 -2.576600 -2.351600 -2.126600 -1.901600 -1.676600 -1.451600 -1.226600 -1.001600 -0.776530 -0.551370 -0.325650 -0.099448 0.142750 0.173940 0.234690 0.259360 0.266650 0.268250 0.266650 0.259360 0.234690 0.173940 -0.067272 -0.293900 -0.520040 -0.745360 -0.970450 -1.195500 -1.420500 -1.645500 -1.870500 -2.095500 -2.320500 -2.545500 -2.770500 -2.995500 -3.220500 -3.445500 -3.670500 -3.895500 -4.120500 -4.345500 -4.570500 -4.795500 -5.020500 -5.245500 -5.470500 -5.695500 -5.920500 -6.145500 -6.370500 -6.595500 -6.820500 -7.045500 -7.270500 -7.495500 -7.720600 -7.946000 -8.172500 -8.403000 -8.646300 -8.926500 -9.227300 -9.492400 -9.748000 -10.000000 -10.253000 -10.512000 -10.785000 -11.120000 -11.315000 -11.451000 -11.562000 -11.665000 -11.761000 -11.853000 -11.941000 -12.024000 -12.103000 -12.177000 -12.247000 -12.313000 -12.374000 -12.430000 -12.482000 -12.530000 -12.573000 -12.612000 -12.646000 -12.675000 -12.700000 -12.721000 -12.737000 -12.748000 -12.755000 -12.757000 -12.755000 -12.748000 -12.737000 -12.721000 -12.700000 -12.675000 -12.646000 -12.612000 -12.573000 -12.530000 -12.482000 -12.430000 -12.374000 -12.313000 -12.247000 -12.177000 -12.103000 -12.024000 -11.941000 -11.853000 -11.761000 -11.665000 -11.562000 -11.451000 -11.315000 -11.120000 -10.785000 -10.512000 -10.253000 -10.000000 -9.748000 -9.492400 -9.227300 -8.926500 -8.646300 -8.403000 -8.172500 -7.946000 -7.720600 -7.495500 -7.270500 -7.045500 -6.820500 -6.595500 -6.370500 -6.145500 -5.920500 -5.695500 -5.470500 -5.245500 -5.020500 -4.795500 -4.570500 -4.345500 -4.120500 -3.895500 -3.670500 -3.445500 -3.220500 -2.995500 -2.770500 -2.545500 -2.320500 -2.095500 -1.870500 -1.645500 -1.420500 -1.195500 -0.970450 -0.745360 -0.520040 -0.293900 -0.067272 0.173940 0.210980 0.284960 0.318310 0.329720 0.332490 0.329720 0.318310 0.284960 0.210980 -0.028363 -0.255350 -0.482050 -0.707650 -0.932840 -1.157900 -1.382900 -1.607900 -1.832900 -2.057900 -2.282900 -2.507900 -2.732900 -2.957900 -3.182900 -3.407900 -3.632900 -3.857900 -4.082900 -4.307900 -4.532900 -4.757900 -4.982900 -5.207900 -5.432900 -5.657900 -5.882900 -6.107900 -6.332900 -6.557900 -6.782900 -7.007900 -7.232900 -7.458000 -7.683200 -7.909100 -8.137000 -8.370900 -8.620800 -8.909900 -9.217000 -9.487300 -9.746200 -10.001000 -10.257000 -10.520000 -10.800000 -11.144000 -11.356000 -11.502000 -11.618000 -11.722000 -11.819000 -11.912000 -12.000000 -12.083000 -12.162000 -12.237000 -12.307000 -12.373000 -12.434000 -12.491000 -12.543000 -12.591000 -12.634000 -12.673000 -12.707000 -12.737000 -12.762000 -12.782000 -12.798000 -12.810000 -12.817000 -12.819000 -12.817000 -12.810000 -12.798000 -12.782000 -12.762000 -12.737000 -12.707000 -12.673000 -12.634000 -12.591000 -12.543000 -12.491000 -12.434000 -12.373000 -12.307000 -12.237000 -12.162000 -12.083000 -12.000000 -11.912000 -11.819000 -11.722000 -11.618000 -11.502000 -11.356000 -11.144000 -10.800000 -10.520000 -10.257000 -10.001000 -9.746200 -9.487300 -9.217000 -8.909900 -8.620800 -8.370900 -8.137000 -7.909100 -7.683200 -7.458000 -7.232900 -7.007900 -6.782900 -6.557900 -6.332900 -6.107900 -5.882900 -5.657900 -5.432900 -5.207900 -4.982900 -4.757900 -4.532900 -4.307900 -4.082900 -3.857900 -3.632900 -3.407900 -3.182900 -2.957900 -2.732900 -2.507900 -2.282900 -2.057900 -1.832900 -1.607900 -1.382900 -1.157900 -0.932840 -0.707650 -0.482050 -0.255350 -0.028363 0.210980 0.255250 0.343350 0.387080 0.404050 0.408520 0.404050 0.387080 0.343350 0.255250 0.018643 -0.208530 -0.435880 -0.661910 -0.887300 -1.112400 -1.337500 -1.562500 -1.787500 -2.012500 -2.237500 -2.462500 -2.687500 -2.912500 -3.137500 -3.362500 -3.587500 -3.812500 -4.037500 -4.262500 -4.487500 -4.712500 -4.937500 -5.162500 -5.387500 -5.612500 -5.837500 -6.062500 -6.287500 -6.512500 -6.737500 -6.962500 -7.187600 -7.412800 -7.638400 -7.865200 -8.095400 -8.334100 -8.592000 -8.890100 -9.203100 -9.479500 -9.743300 -10.002000 -10.262000 -10.532000 -10.820000 -11.172000 -11.403000 -11.560000 -11.683000 -11.790000 -11.889000 -11.982000 -12.071000 -12.154000 -12.234000 -12.309000 -12.379000 -12.445000 -12.506000 -12.563000 -12.616000 -12.664000 -12.707000 -12.746000 -12.780000 -12.810000 -12.835000 -12.856000 -12.872000 -12.884000 -12.890000 -12.893000 -12.890000 -12.884000 -12.872000 -12.856000 -12.835000 -12.810000 -12.780000 -12.746000 -12.707000 -12.664000 -12.616000 -12.563000 -12.506000 -12.445000 -12.379000 -12.309000 -12.234000 -12.154000 -12.071000 -11.982000 -11.889000 -11.790000 -11.683000 -11.560000 -11.403000 -11.172000 -10.820000 -10.532000 -10.262000 -10.002000 -9.743300 -9.479500 -9.203100 -8.890100 -8.592000 -8.334100 -8.095400 -7.865200 -7.638400 -7.412800 -7.187600 -6.962500 -6.737500 -6.512500 -6.287500 -6.062500 -5.837500 -5.612500 -5.387500 -5.162500 -4.937500 -4.712500 -4.487500 -4.262500 -4.037500 -3.812500 -3.587500 -3.362500 -3.137500 -2.912500 -2.687500 -2.462500 -2.237500 -2.012500 -1.787500 -1.562500 -1.337500 -1.112400 -0.887300 -0.661910 -0.435880 -0.208530 0.018643 0.255250 0.308790 0.411400 0.467070 0.491050 0.497760 0.491050 0.467070 0.411400 0.308790 0.075393 -0.151640 -0.379680 -0.606310 -0.832040 -1.057300 -1.282400 -1.507500 -1.732500 -1.957500 -2.182500 -2.407500 -2.632500 -2.857500 -3.082500 -3.307500 -3.532500 -3.757500 -3.982500 -4.207500 -4.432500 -4.657500 -4.882500 -5.107500 -5.332500 -5.557500 -5.782500 -6.007500 -6.232500 -6.457500 -6.682500 -6.907600 -7.132800 -7.358300 -7.584700 -7.813300 -8.047100 -8.292200 -8.559300 -8.866300 -9.185000 -9.468500 -9.738900 -10.003000 -10.270000 -10.548000 -10.846000 -11.206000 -11.456000 -11.628000 -11.760000 -11.871000 -11.972000 -12.067000 -12.156000 -12.240000 -12.320000 -12.395000 -12.466000 -12.532000 -12.594000 -12.651000 -12.704000 -12.752000 -12.795000 -12.834000 -12.869000 -12.899000 -12.924000 -12.945000 -12.961000 -12.972000 -12.979000 -12.982000 -12.979000 -12.972000 -12.961000 -12.945000 -12.924000 -12.899000 -12.869000 -12.834000 -12.795000 -12.752000 -12.704000 -12.651000 -12.594000 -12.532000 -12.466000 -12.395000 -12.320000 -12.240000 -12.156000 -12.067000 -11.972000 -11.871000 -11.760000 -11.628000 -11.456000 -11.206000 -10.846000 -10.548000 -10.270000 -10.003000 -9.738900 -9.468500 -9.185000 -8.866300 -8.559300 -8.292200 -8.047100 -7.813300 -7.584700 -7.358300 -7.132800 -6.907600 -6.682500 -6.457500 -6.232500 -6.007500 -5.782500 -5.557500 -5.332500 -5.107500 -4.882500 -4.657500 -4.432500 -4.207500 -3.982500 -3.757500 -3.532500 -3.307500 -3.082500 -2.857500 -2.632500 -2.407500 -2.182500 -1.957500 -1.732500 -1.507500 -1.282400 -1.057300 -0.832040 -0.606310 -0.379680 -0.151640 0.075393 0.308790 0.373660 0.490750 0.559680 0.592000 0.601500 0.592000 0.559680 0.490750 0.373660 0.143900 -0.082518 -0.311150 -0.538520 -0.764790 -0.990390 -1.215600 -1.440800 -1.665800 -1.890800 -2.115800 -2.340800 -2.565800 -2.790800 -3.015800 -3.240800 -3.465800 -3.690800 -3.915800 -4.140800 -4.365800 -4.590800 -4.815800 -5.040800 -5.265800 -5.490800 -5.715800 -5.940800 -6.165800 -6.390900 -6.615900 -6.841100 -7.066600 -7.292900 -7.520800 -7.752300 -7.991300 -8.244500 -8.522000 -8.837800 -9.162100 -9.453700 -9.732800 -10.006000 -10.283000 -10.571000 -10.880000 -11.246000 -11.516000 -11.705000 -11.848000 -11.967000 -12.071000 -12.168000 -12.258000 -12.343000 -12.423000 -12.499000 -12.570000 -12.636000 -12.698000 -12.756000 -12.809000 -12.857000 -12.901000 -12.941000 -12.975000 -13.005000 -13.031000 -13.052000 -13.068000 -13.079000 -13.086000 -13.089000 -13.086000 -13.079000 -13.068000 -13.052000 -13.031000 -13.005000 -12.975000 -12.941000 -12.901000 -12.857000 -12.809000 -12.756000 -12.698000 -12.636000 -12.570000 -12.499000 -12.423000 -12.343000 -12.258000 -12.168000 -12.071000 -11.967000 -11.848000 -11.705000 -11.516000 -11.246000 -10.880000 -10.571000 -10.283000 -10.006000 -9.732800 -9.453700 -9.162100 -8.837800 -8.522000 -8.244500 -7.991300 -7.752300 -7.520800 -7.292900 -7.066600 -6.841100 -6.615900 -6.390900 -6.165800 -5.940800 -5.715800 -5.490800 -5.265800 -5.040800 -4.815800 -4.590800 -4.365800 -4.140800 -3.915800 -3.690800 -3.465800 -3.240800 -3.015800 -2.790800 -2.565800 -2.340800 -2.115800 -1.890800 -1.665800 -1.440800 -1.215600 -0.990390 -0.764790 -0.538520 -0.311150 -0.082518 0.143900 0.373660 0.452350 0.583450 0.666460 0.708220 0.720960 0.708220 0.666460 0.583450 0.452350 0.226640 0.001429 -0.227490 -0.455660 -0.682660 -0.908760 -1.134300 -1.359600 -1.584700 -1.809800 -2.034800 -2.259800 -2.484800 -2.709800 -2.934800 -3.159800 -3.384800 -3.609800 -3.834800 -4.059800 -4.284800 -4.509800 -4.734800 -4.959800 -5.184800 -5.409800 -5.634800 -5.859800 -6.084900 -6.310000 -6.535200 -6.760800 -6.987100 -7.214800 -7.445400 -7.681600 -7.927700 -8.190800 -8.479400 -8.803600 -9.133500 -9.434600 -9.725000 -10.011000 -10.300000 -10.602000 -10.921000 -11.295000 -11.585000 -11.794000 -11.951000 -12.079000 -12.189000 -12.288000 -12.380000 -12.466000 -12.547000 -12.624000 -12.695000 -12.762000 -12.825000 -12.883000 -12.936000 -12.985000 -13.029000 -13.069000 -13.103000 -13.134000 -13.159000 -13.180000 -13.197000 -13.208000 -13.215000 -13.218000 -13.215000 -13.208000 -13.197000 -13.180000 -13.159000 -13.134000 -13.103000 -13.069000 -13.029000 -12.985000 -12.936000 -12.883000 -12.825000 -12.762000 -12.695000 -12.624000 -12.547000 -12.466000 -12.380000 -12.288000 -12.189000 -12.079000 -11.951000 -11.794000 -11.585000 -11.295000 -10.921000 -10.602000 -10.300000 -10.011000 -9.725000 -9.434600 -9.133500 -8.803600 -8.479400 -8.190800 -7.927700 -7.681600 -7.445400 -7.214800 -6.987100 -6.760800 -6.535200 -6.310000 -6.084900 -5.859800 -5.634800 -5.409800 -5.184800 -4.959800 -4.734800 -4.509800 -4.284800 -4.059800 -3.834800 -3.609800 -3.384800 -3.159800 -2.934800 -2.709800 -2.484800 -2.259800 -2.034800 -1.809800 -1.584700 -1.359600 -1.134300 -0.908760 -0.682660 -0.455660 -0.227490 0.001429 0.226640 0.452350 0.547950 0.692010 0.789310 0.841170 0.857470 0.841170 0.789310 0.692010 0.547950 0.326660 0.103360 -0.125330 -0.354160 -0.582040 -0.808880 -1.035000 -1.260500 -1.485800 -1.711000 -1.936100 -2.161100 -2.386100 -2.611100 -2.836100 -3.061100 -3.286100 -3.511100 -3.736100 -3.961100 -4.186100 -4.411100 -4.636100 -4.861100 -5.086200 -5.311200 -5.536200 -5.761300 -5.986500 -6.211800 -6.437500 -6.664000 -6.891900 -7.122300 -7.357400 -7.600400 -7.855900 -8.130400 -8.430700 -8.763100 -9.099000 -9.411200 -9.716000 -10.018000 -10.324000 -10.641000 -10.973000 -11.353000 -11.664000 -11.894000 -12.069000 -12.209000 -12.327000 -12.432000 -12.527000 -12.615000 -12.697000 -12.774000 -12.847000 -12.914000 -12.977000 -13.036000 -13.090000 -13.139000 -13.183000 -13.223000 -13.258000 -13.289000 -13.314000 -13.335000 -13.352000 -13.364000 -13.371000 -13.373000 -13.371000 -13.364000 -13.352000 -13.335000 -13.314000 -13.289000 -13.258000 -13.223000 -13.183000 -13.139000 -13.090000 -13.036000 -12.977000 -12.914000 -12.847000 -12.774000 -12.697000 -12.615000 -12.527000 -12.432000 -12.327000 -12.209000 -12.069000 -11.894000 -11.664000 -11.353000 -10.973000 -10.641000 -10.324000 -10.018000 -9.716000 -9.411200 -9.099000 -8.763100 -8.430700 -8.130400 -7.855900 -7.600400 -7.357400 -7.122300 -6.891900 -6.664000 -6.437500 -6.211800 -5.986500 -5.761300 -5.536200 -5.311200 -5.086200 -4.861100 -4.636100 -4.411100 -4.186100 -3.961100 -3.736100 -3.511100 -3.286100 -3.061100 -2.836100 -2.611100 -2.386100 -2.161100 -1.936100 -1.711000 -1.485800 -1.260500 -1.035000 -0.808880 -0.582040 -0.354160 -0.125330 0.103360 0.326660 0.547950 0.664280 0.819600 0.930590 0.992690 1.012700 0.992690 0.930590 0.819600 0.664280 0.447760 0.227110 -0.000583 -0.229670 -0.458390 -0.686160 -0.913020 -1.139200 -1.364900 -1.590200 -1.815500 -2.040600 -2.265600 -2.490700 -2.715700 -2.940700 -3.165700 -3.390700 -3.615700 -3.840700 -4.065700 -4.290700 -4.515700 -4.740700 -4.965800 -5.190800 -5.416000 -5.641300 -5.866800 -6.092800 -6.319700 -6.548100 -6.779100 -7.014300 -7.256200 -7.508300 -7.775300 -8.062700 -8.375200 -8.715600 -9.058400 -9.384000 -9.706500 -10.028000 -10.355000 -10.690000 -11.036000 -11.423000 -11.755000 -12.008000 -12.203000 -12.359000 -12.489000 -12.601000 -12.701000 -12.793000 -12.877000 -12.956000 -13.029000 -13.098000 -13.161000 -13.220000 -13.275000 -13.324000 -13.369000 -13.409000 -13.445000 -13.476000 -13.502000 -13.523000 -13.539000 -13.551000 -13.558000 -13.561000 -13.558000 -13.551000 -13.539000 -13.523000 -13.502000 -13.476000 -13.445000 -13.409000 -13.369000 -13.324000 -13.275000 -13.220000 -13.161000 -13.098000 -13.029000 -12.956000 -12.877000 -12.793000 -12.701000 -12.601000 -12.489000 -12.359000 -12.203000 -12.008000 -11.755000 -11.423000 -11.036000 -10.690000 -10.355000 -10.028000 -9.706500 -9.384000 -9.058400 -8.715600 -8.375200 -8.062700 -7.775300 -7.508300 -7.256200 -7.014300 -6.779100 -6.548100 -6.319700 -6.092800 -5.866800 -5.641300 -5.416000 -5.190800 -4.965800 -4.740700 -4.515700 -4.290700 -4.065700 -3.840700 -3.615700 -3.390700 -3.165700 -2.940700 -2.715700 -2.490700 -2.265600 -2.040600 -1.815500 -1.590200 -1.364900 -1.139200 -0.913020 -0.686160 -0.458390 -0.229670 -0.000583 0.227110 0.447760 0.664280 0.806010 0.970220 1.093400 1.165200 1.188800 1.165200 1.093400 0.970220 0.806010 0.594640 0.377440 0.151710 -0.076914 -0.306140 -0.534850 -0.762700 -0.989720 -1.216100 -1.441900 -1.667500 -1.892800 -2.118000 -2.343100 -2.568100 -2.793200 -3.018200 -3.243200 -3.468200 -3.693200 -3.918300 -4.143300 -4.368300 -4.593400 -4.818600 -5.043900 -5.269400 -5.495300 -5.721900 -5.949500 -6.178900 -6.411000 -6.647300 -6.889800 -7.141300 -7.405200 -7.685700 -7.987100 -8.312200 -8.661100 -9.012700 -9.354300 -9.697900 -10.044000 -10.394000 -10.751000 -11.113000 -11.508000 -11.859000 -12.137000 -12.355000 -12.531000 -12.676000 -12.799000 -12.908000 -13.004000 -13.093000 -13.174000 -13.