TITLE = "vncfd python"
VARIABLES = "X", "Y"
ZONE T="1", I= 51, J= 21
0.000000 0.000000
0.200000 0.000000
0.400000 0.000000
0.600000 0.000000
0.800000 0.000000
1.000000 0.000000
1.200000 0.000000
1.400000 0.000000
1.600000 0.000000
1.800000 0.000000
2.000000 0.000000
2.200000 0.000000
2.400000 0.000000
2.600000 0.000000
2.800000 0.000000
3.000000 0.000000
3.200000 0.000000
3.400000 0.000000
3.600000 0.000000
3.800000 0.000000
4.000000 0.000000
4.200000 0.000000
4.400000 0.000000
4.600000 0.000000
4.800000 0.000000
5.000000 0.000000
5.200000 0.000000
5.400000 0.000000
5.600000 0.000000
5.800000 0.000000
6.000000 0.000000
6.200000 0.000000
6.400000 0.000000
6.600000 0.000000
6.800000 0.000000
7.000000 0.000000
7.200000 0.000000
7.400000 0.000000
7.600000 0.000000
7.800000 0.000000
8.000000 0.000000
8.200000 0.000000
8.400000 0.000000
8.600000 0.000000
8.800000 0.000000
9.000000 0.000000
9.200000 0.000000
9.400000 0.000000
9.600000 0.000000
9.800000 0.000000
10.000000 0.000000
0.000000 0.010000
0.200000 0.010000
0.400000 0.010000
0.600000 0.010000
0.800000 0.010000
1.000000 0.010000
1.200000 0.010000
1.400000 0.010000
1.600000 0.010000
1.800000 0.010000
2.000000 0.010000
2.200000 0.010000
2.400000 0.010000
2.600000 0.010000
2.800000 0.010000
3.000000 0.010000
3.200000 0.010000
3.400000 0.010000
3.600000 0.010000
3.800000 0.010000
4.000000 0.010000
4.200000 0.010000
4.400000 0.010000
4.600000 0.010000
4.800000 0.010000
5.000000 0.010000
5.200000 0.010000
5.400000 0.010000
5.600000 0.010000
5.800000 0.010000
6.000000 0.010000
6.200000 0.010000
6.400000 0.010000
6.600000 0.010000
6.800000 0.010000
7.000000 0.010000
7.200000 0.010000
7.400000 0.010000
7.600000 0.010000
7.800000 0.010000
8.000000 0.010000
8.200000 0.010000
8.400000 0.010000
8.600000 0.010000
8.800000 0.010000
9.000000 0.010000
9.200000 0.010000
9.400000 0.010000
9.600000 0.010000
9.800000 0.010000
10.000000 0.010000
0.000000 0.026500
0.200000 0.026494
0.400000 0.026477
0.600000 0.026449
0.800000 0.026410
1.000000 0.026360
1.200000 0.026299
1.400000 0.026227
1.600000 0.026145
1.800000 0.026052
2.000000 0.025950
2.200000 0.025839
2.400000 0.025720
2.600000 0.025592
2.800000 0.025459
3.000000 0.025321
3.200000 0.025180
3.400000 0.025039
3.600000 0.024901
3.800000 0.024769
4.000000 0.024647
4.200000 0.024538
4.400000 0.024449
4.600000 0.024382
4.800000 0.024340
5.000000 0.024325
5.200000 0.024330
5.400000 0.024344
5.600000 0.024367
5.800000 0.024399
6.000000 0.024438
6.200000 0.024483
6.400000 0.024534
6.600000 0.024589
6.800000 0.024647
7.000000 0.024707
7.200000 0.024769
7.400000 0.024829
7.600000 0.024889
7.800000 0.024947
8.000000 0.025002
8.200000 0.025054
8.400000 0.025101
8.600000 0.025145
8.800000 0.025183
9.000000 0.025216
9.200000 0.025243
9.400000 0.025264
9.600000 0.025280
9.800000 0.025289
10.000000 0.025292
0.000000 0.053535
0.200000 0.053510
0.400000 0.053438
0.600000 0.053316
0.800000 0.053149
1.000000 0.052933
1.200000 0.052672
1.400000 0.052365
1.600000 0.052015
1.800000 0.051624
2.000000 0.051193
2.200000 0.050726
2.400000 0.050226
2.600000 0.049699
2.800000 0.049149
3.000000 0.048584
3.200000 0.048012
3.400000 0.047443
3.600000 0.046890
3.800000 0.046364
4.000000 0.045881
4.200000 0.045457
4.400000 0.045107
4.600000 0.044845
4.800000 0.044683
5.000000 0.044628
5.200000 0.044647
5.400000 0.044701
5.600000 0.044790
5.800000 0.044912
6.000000 0.045063
6.200000 0.045240
6.400000 0.045439
6.600000 0.045655
6.800000 0.045884
7.000000 0.046121
7.200000 0.046363
7.400000 0.046605
7.600000 0.046843
7.800000 0.047074
8.000000 0.047295
8.200000 0.047502
8.400000 0.047694
8.600000 0.047868
8.800000 0.048023
9.000000 0.048156
9.200000 0.048267
9.400000 0.048354
9.600000 0.048417
9.800000 0.048455
10.000000 0.048467
0.000000 0.097332
0.200000 0.097261
0.400000 0.097052
0.600000 0.096702
0.800000 0.096218
1.000000 0.095598
1.200000 0.094847
1.400000 0.093970
1.600000 0.092973
1.800000 0.091863
2.000000 0.090647
2.200000 0.089337
2.400000 0.087944
2.600000 0.086483
2.800000 0.084971
3.000000 0.083429
3.200000 0.081880
3.400000 0.080352
3.600000 0.078875
3.800000 0.077485
4.000000 0.076217
4.200000 0.075111
4.400000 0.074204
4.600000 0.073528
4.800000 0.073110
5.000000 0.072969
5.200000 0.073016
5.400000 0.073156
5.600000 0.073386
5.800000 0.073700
6.000000 0.074090
6.200000 0.074548
6.400000 0.075064
6.600000 0.075626
6.800000 0.076224
7.000000 0.076847
7.200000 0.077482
7.400000 0.078121
7.600000 0.078752
7.800000 0.079365
8.000000 0.079954
8.200000 0.080509
8.400000 0.081024
8.600000 0.081492
8.800000 0.081909
9.000000 0.082269
9.200000 0.082568
9.400000 0.082804
9.600000 0.082975
9.800000 0.083078
10.000000 0.083112
0.000000 0.166999
0.200000 0.166829
0.400000 0.166324
0.600000 0.165485
0.800000 0.164320
1.000000 0.162836
1.200000 0.161044
1.400000 0.158959
1.600000 0.156599
1.800000 0.153982
2.000000 0.151134
2.200000 0.148083
2.400000 0.144861
2.600000 0.141505
2.800000 0.138060
3.000000 0.134572
3.200000 0.131099
3.400000 0.127701
3.600000 0.124446
3.800000 0.121406
4.000000 0.118656
4.200000 0.116273
4.400000 0.114330
4.600000 0.112890
4.800000 0.112004
5.000000 0.111705
5.200000 0.111805
5.400000 0.112102
5.600000 0.112589
5.800000 0.113256
6.000000 0.114088
6.200000 0.115067
6.400000 0.116171
6.600000 0.117380
6.800000 0.118671
7.000000 0.120019
7.200000 0.121400
7.400000 0.122793
7.600000 0.124174
7.800000 0.125523
8.000000 0.126821
8.200000 0.128049
8.400000 0.129191
8.600000 0.130233
8.800000 0.131163
9.000000 0.131968
9.200000 0.132638
9.400000 0.133168
9.600000 0.133551
9.800000 0.133782
10.000000 0.133859
0.000000 0.274649
0.200000 0.274286
0.400000 0.273204
0.600000 0.271408
0.800000 0.268920
1.000000 0.265759
1.200000 0.261955
1.400000 0.257545
1.600000 0.252577
1.800000 0.247098
2.000000 0.241170
2.200000 0.234859
2.400000 0.228242
2.600000 0.221402
2.800000 0.214434
3.000000 0.207442
3.200000 0.200538
3.400000 0.193842
3.600000 0.187484
3.800000 0.181597
4.000000 0.176314
4.200000 0.171771
4.400000 0.168088
4.600000 0.165373
4.800000 0.163708
5.000000 0.163147
5.200000 0.163334
5.400000 0.163891
5.600000 0.164807
5.800000 0.166063
6.000000 0.167631
6.200000 0.169482
6.400000 0.171577
6.600000 0.173878
6.800000 0.176343
7.000000 0.178927
7.200000 0.181586
7.400000 0.184277
7.600000 0.186956
7.800000 0.189582
8.000000 0.192118
8.200000 0.194526
8.400000 0.196772
8.600000 0.198827
8.800000 0.200665
9.000000 0.202259
9.200000 0.203590
9.400000 0.204644
9.600000 0.205405
9.800000 0.205866
10.000000 0.206020
0.000000 0.433763
0.200000 0.433056
0.400000 0.430944
0.600000 0.427447
0.800000 0.422610
1.000000 0.416483
1.200000 0.409134
1.400000 0.400650
1.600000 0.391135
1.800000 0.380697
2.000000 0.369472
2.200000 0.357599
2.400000 0.345237
2.600000 0.332558
2.800000 0.319746
3.000000 0.306994
3.200000 0.294513
3.400000 0.282515
3.600000 0.271220
3.800000 0.260848
4.000000 0.251617
4.200000 0.243732
4.400000 0.237381
4.600000 0.232722
4.800000 0.229875
5.000000 0.228917
5.200000 0.229237
5.400000 0.230188
5.600000 0.231754
5.800000 0.233904
6.000000 0.236596
6.200000 0.239781
6.400000 0.243398
6.600000 0.247383
6.800000 0.251666
7.000000 0.256174
7.200000 0.260829
7.400000 0.265559
7.600000 0.270285
7.800000 0.274936
8.000000 0.279441
8.200000 0.283735
8.400000 0.287752
8.600000 0.291437
8.800000 0.294741
9.000000 0.297614
9.200000 0.300018
9.400000 0.301923
9.600000 0.303301
9.800000 0.304137
10.000000 0.304415
0.000000 0.654146
0.200000 0.652888
0.400000 0.649129
0.600000 0.642914
0.800000 0.634331
1.000000 0.623489
1.200000 0.610528
1.400000 0.595623
1.600000 0.578977
1.800000 0.560812
2.000000 0.541386
2.200000 0.520965
2.400000 0.499844
2.600000 0.478337
2.800000 0.456766
3.000000 0.435467
3.200000 0.414786
3.400000 0.395065
3.600000 0.376649
3.800000 0.359870
4.000000 0.345044
4.200000 0.332464
4.400000 0.322388
4.600000 0.315028
4.800000 0.310545
5.000000 0.309039
5.200000 0.309541
5.400000 0.311038
5.600000 0.313503
5.800000 0.316893
6.000000 0.321145
6.200000 0.326188
6.400000 0.331932
6.600000 0.338279
6.800000 0.345123
7.000000 0.352349
7.200000 0.359840
7.400000 0.367475
7.600000 0.375133
7.800000 0.382693
8.000000 0.390040
8.200000 0.397063
8.400000 0.403654
8.600000 0.409715
8.800000 0.415161
9.000000 0.419907
9.200000 0.423886
9.400000 0.427043
9.600000 0.429330
9.800000 0.430717
10.000000 0.431180
0.000000 0.933417
0.200000 0.931385
0.400000 0.925319
0.600000 0.915301
0.800000 0.901486
1.000000 0.884075
1.200000 0.863317
1.400000 0.839524
1.600000 0.813052
1.800000 0.784287
2.000000 0.753670
2.200000 0.721654
2.400000 0.688726
2.600000 0.655397
2.800000 0.622180
3.000000 0.589597
3.200000 0.558170
3.400000 0.528407
3.600000 0.500798
3.800000 0.475804
4.000000 0.453852
4.200000 0.435329
4.400000 0.420559
4.600000 0.409812
4.800000 0.403283
5.000000 0.401093
5.200000 0.401823
5.400000 0.404000
5.600000 0.407590
5.800000 0.412532
6.000000 0.418743
6.200000 0.426122
6.400000 0.434547
6.600000 0.443879
6.800000 0.453969
7.000000 0.464653
7.200000 0.475759
7.400000 0.487113
7.600000 0.498532
7.800000 0.509838
8.000000 0.520854
8.200000 0.531413
8.400000 0.541344
8.600000 0.550498
8.800000 0.558739
9.000000 0.565933
9.200000 0.571973
9.400000 0.576771
9.600000 0.580250
9.800000 0.582360
10.000000 0.583065
0.000000 1.249999
0.200000 1.247044
0.400000 1.238222
0.600000 1.223667
0.800000 1.203614
1.000000 1.178384
1.200000 1.148362
1.400000 1.114031
1.600000 1.075933
1.800000 1.034662
2.000000 0.990881
2.200000 0.945268
2.400000 0.898545
2.600000 0.851453
2.800000 0.804732
3.000000 0.759118
3.200000 0.715332
3.400000 0.674065
3.600000 0.635967
3.800000 0.601637
4.000000 0.571618
4.200000 0.546385
4.400000 0.526334
4.600000 0.511781
4.800000 0.502957
5.000000 0.500000
5.200000 0.500986
5.400000 0.503927
5.600000 0.508777
5.800000 0.515461
6.000000 0.523872
6.200000 0.533879
6.400000 0.545322
6.600000 0.558021
6.800000 0.571778
7.000000 0.586373
7.200000 0.601577
7.400000 0.617152
7.600000 0.632849
7.800000 0.648422
8.000000 0.663625
8.200000 0.678223
8.400000 0.691978
8.600000 0.704676
8.800000 0.716122
9.000000 0.726127
9.200000 0.734537
9.400000 0.741222
9.600000 0.746072
9.800000 0.749015
10.000000 0.749999
0.000000 1.566581
0.200000 1.562703
0.400000 1.551124
0.600000 1.532032
0.800000 1.505742
1.000000 1.472693
1.200000 1.433407
1.400000 1.388538
1.600000 1.338813
1.800000 1.285037
2.000000 1.228091
2.200000 1.168883
2.400000 1.108364
2.600000 1.047510
2.800000 0.987284
3.000000 0.928638
3.200000 0.872494
3.400000 0.819722
3.600000 0.771136
3.800000 0.727471
4.000000 0.689384
4.200000 0.657441
4.400000 0.632108
4.600000 0.613751
4.800000 0.602631
5.000000 0.598907
5.200000 0.600148
5.400000 0.603853
5.600000 0.609964
5.800000 0.618391
6.000000 0.629001
6.200000 0.641636
6.400000 0.656097
6.600000 0.672163
6.800000 0.689586
7.000000 0.708093
7.200000 0.727395
7.400000 0.747191
7.600000 0.767165
7.800000 0.787006
8.000000 0.806396
8.200000 0.825033
8.400000 0.842612
8.600000 0.858854
8.800000 0.873505
9.000000 0.886322
9.200000 0.897101
9.400000 0.905673
9.600000 0.911895
9.800000 0.915671
10.000000 0.916934
0.000000 1.845852
0.200000 1.841200
0.400000 1.827313
0.600000 1.804419
0.800000 1.772897
1.000000 1.733278
1.200000 1.686197
1.400000 1.632441
1.600000 1.572889
1.800000 1.508514
2.000000 1.440376
2.200000 1.369572
2.400000 1.297246
2.600000 1.224570
2.800000 1.152698
3.000000 1.082769
3.200000 1.015879
3.400000 0.953064
3.600000 0.895284
3.800000 0.843405
4.000000 0.798193
4.200000 0.760306
4.400000 0.730280
4.600000 0.708535
4.800000 0.695369
5.000000 0.690961
5.200000 0.692430
5.400000 0.696815
5.600000 0.704052
5.800000 0.714030
6.000000 0.726599
6.200000 0.741570
6.400000 0.758712
6.600000 0.777763
6.800000 0.798432
7.000000 0.820397
7.200000 0.843314
7.400000 0.866828
7.600000 0.890565
7.800000 0.914151
8.000000 0.937212
8.200000 0.959383
8.400000 0.980303
8.600000 0.999638
8.800000 1.017082
9.000000 1.032347
9.200000 1.045188
9.400000 1.055401
9.600000 1.062814
9.800000 1.067313
10.000000 1.068819
0.000000 2.066235
0.200000 2.061031
0.400000 2.045496
0.600000 2.019886
0.800000 1.984618
1.000000 1.940283
1.200000 1.887591
1.400000 1.827414
1.600000 1.760732
1.800000 1.688631
2.000000 1.612290
2.200000 1.532937
2.400000 1.451854
2.600000 1.370349
2.800000 1.289718
3.000000 1.211242
3.200000 1.136152
3.400000 1.065614
3.600000 1.000713
3.800000 0.942427
4.000000 0.891620
4.200000 0.849038
4.400000 0.815286
4.600000 0.790841
4.800000 0.776039
5.000000 0.771083
5.200000 0.772734
5.400000 0.777665
5.600000 0.785800
5.800000 0.797019
6.000000 0.811149
6.200000 0.827977
6.400000 0.847246
6.600000 0.868660
6.800000 0.891889
7.000000 0.916573
7.200000 0.942325
7.400000 0.968744
7.600000 0.995412
7.800000 1.021908
8.000000 1.047811
8.200000 1.072711
8.400000 1.096205
8.600000 1.117916
8.800000 1.137502
9.000000 1.154641
9.200000 1.169057
9.400000 1.180521
9.600000 1.188843
9.800000 1.193893
10.000000 1.195583
0.000000 2.225350
0.200000 2.219801
0.400000 2.203236
0.600000 2.175925
0.800000 2.138309
1.000000 2.091007
1.200000 2.034771
1.400000 1.970520
1.600000 1.899291
1.800000 1.822232
2.000000 1.740592
2.200000 1.655677
2.400000 1.568850
2.600000 1.481505
2.800000 1.395030
3.000000 1.310795
3.200000 1.230127
3.400000 1.154287
3.600000 1.084449
3.800000 1.021678
4.000000 0.966923
4.200000 0.920999
4.400000 0.884580
4.600000 0.858190
4.800000 0.842206
5.000000 0.836853
5.200000 0.838637
5.400000 0.843962
5.600000 0.852748
5.800000 0.864860
6.000000 0.880114
6.200000 0.898276
6.400000 0.919067
6.600000 0.942164
6.800000 0.967212
7.000000 0.993819
7.200000 1.021568
7.400000 1.050026
7.600000 1.078742
7.800000 1.107262
8.000000 1.135135
8.200000 1.161920
8.400000 1.187185
8.600000 1.210527
8.800000 1.231578
9.000000 1.249996
9.200000 1.265486
9.400000 1.277801
9.600000 1.286740
9.800000 1.292163
10.000000 1.293979
0.000000 2.333000
0.200000 2.327257
0.400000 2.310115
0.600000 2.281848
0.800000 2.242909
1.000000 2.193928
1.200000 2.135682
1.400000 2.069108
1.600000 1.995270
1.800000 1.915350
2.000000 1.830628
2.200000 1.742453
2.400000 1.652231
2.600000 1.561402
2.800000 1.471404
3.000000 1.383665
3.200000 1.299566
3.400000 1.220429
3.600000 1.147487
3.800000 1.081869
4.000000 1.024581
4.200000 0.976497
4.400000 0.938338
4.600000 0.910673
4.800000 0.893910
5.000000 0.888295
5.200000 0.890166
5.400000 0.895752
5.600000 0.904966
5.800000 0.917667
6.000000 0.933657
6.200000 0.952691
6.400000 0.974473
6.600000 0.998662
6.800000 1.024884
7.000000 1.052727
7.200000 1.081754
7.400000 1.111510
7.600000 1.141523
7.800000 1.171322
8.000000 1.200432
8.200000 1.228396
8.400000 1.254765
8.600000 1.279121
8.800000 1.301080
9.000000 1.320287
9.200000 1.336438
9.400000 1.349276
9.600000 1.358595
9.800000 1.364247
10.000000 1.366140
0.000000 2.402667
0.200000 2.396825
0.400000 2.379387
0.600000 2.350630
0.800000 2.311012
1.000000 2.261166
1.200000 2.201879
1.400000 2.134097
1.600000 2.058896
1.800000 1.977470
2.000000 1.891115
2.200000 1.801199
2.400000 1.709148
2.600000 1.616424
2.800000 1.524493
3.000000 1.434808
3.200000 1.348785
3.400000 1.267778
3.600000 1.193057
3.800000 1.125789
4.000000 1.067020
4.200000 1.017659
4.400000 0.978464
4.600000 0.950035
4.800000 0.932804
5.000000 0.927031
5.200000 0.928955
5.400000 0.934697
5.600000 0.944169
5.800000 0.957223
6.000000 0.973655
6.200000 0.993209
6.400000 1.015580
6.600000 1.040417
6.800000 1.067331
7.000000 1.095899
7.200000 1.125672
7.400000 1.156182
7.600000 1.186946
7.800000 1.217480
8.000000 1.247300
8.200000 1.275936
8.400000 1.302933
8.600000 1.327863
8.800000 1.350334
9.000000 1.369986
9.200000 1.386508
9.400000 1.399640
9.600000 1.409171
9.800000 1.414951
10.000000 1.416888
0.000000 2.446465
0.200000 2.440577
0.400000 2.423001
0.600000 2.394016
0.800000 2.354081
1.000000 2.303830
1.200000 2.244055
1.400000 2.175703
1.600000 2.099854
1.800000 2.017710
2.000000 1.930570
2.200000 1.839810
2.400000 1.746866
2.600000 1.653209
2.800000 1.560315
3.000000 1.469653
3.200000 1.382653
3.400000 1.300687
3.600000 1.225043
3.800000 1.156910
4.000000 1.097356
4.200000 1.047313
4.400000 1.007560
4.600000 0.978717
4.800000 0.961231
5.000000 0.955372
5.200000 0.957325
5.400000 0.963153
5.600000 0.972765
5.800000 0.986011
6.000000 1.002682
6.200000 1.022517
6.400000 1.045205
6.600000 1.070388
6.800000 1.097671
7.000000 1.126625
7.200000 1.156792
7.400000 1.187698
7.600000 1.218855
7.800000 1.249771
8.000000 1.279959
8.200000 1.308943
8.400000 1.336263
8.600000 1.361487
8.800000 1.384220
9.000000 1.404098
9.200000 1.420810
9.400000 1.434090
9.600000 1.443729
9.800000 1.449574
10.000000 1.451532
0.000000 2.473500
0.200000 2.467592
0.400000 2.449961
0.600000 2.420884
0.800000 2.380820
1.000000 2.330404
1.200000 2.270428
1.400000 2.201841
1.600000 2.125725
1.800000 2.043282
2.000000 1.955812
2.200000 1.864697
2.400000 1.771373
2.600000 1.677315
2.800000 1.584005
3.000000 1.492916
3.200000 1.405485
3.400000 1.323091
3.600000 1.247031
3.800000 1.178505
4.000000 1.118591
4.200000 1.068231
4.400000 1.028219
4.600000 0.999181
4.800000 0.981574
5.000000 0.975675
5.200000 0.977641
5.400000 0.983510
5.600000 0.993188
5.800000 1.006525
6.000000 1.023308
6.200000 1.043275
6.400000 1.066110
6.600000 1.091454
6.800000 1.118908
7.000000 1.148038
7.200000 1.178386
7.400000 1.209473
7.600000 1.240808
7.800000 1.271898
8.000000 1.302252
8.200000 1.331391
8.400000 1.358855
8.600000 1.384211
8.800000 1.407059
9.000000 1.427039
9.200000 1.443834
9.400000 1.457180
9.600000 1.466866
9.800000 1.472740
10.000000 1.474708
0.000000 2.490000
0.200000 2.484086
0.400000 2.466438
0.600000 2.437333
0.800000 2.397230
1.000000 2.346763
1.200000 2.286726
1.400000 2.218068
1.600000 2.141870
1.800000 2.059335
2.000000 1.971763
2.200000 1.880536
2.400000 1.787093
2.600000 1.692907
2.800000 1.599464
3.000000 1.508237
3.200000 1.420665
3.400000 1.338130
3.600000 1.261932
3.800000 1.193274
4.000000 1.133237
4.200000 1.082770
4.400000 1.042668
4.600000 1.013563
4.800000 0.995914
5.000000 0.990000
5.200000 0.991971
5.400000 0.997854
5.600000 1.007556
5.800000 1.020923
6.000000 1.037746
6.200000 1.057758
6.400000 1.080644
6.600000 1.106043
6.800000 1.133555
7.000000 1.162746
7.200000 1.193155
7.400000 1.224302
7.600000 1.255697
7.800000 1.286845
8.000000 1.317254
8.200000 1.346445
8.400000 1.373957
8.600000 1.399356
8.800000 1.422242
9.000000 1.442254
9.200000 1.459077
9.400000 1.472444
9.600000 1.482146
9.800000 1.488029
10.000000 1.490000
0.000000 2.500000
0.200000 2.494086
0.400000 2.476438
0.600000 2.447332
0.800000 2.407230
1.000000 2.356763
1.200000 2.296726
1.400000 2.228068
1.600000 2.151870
1.800000 2.069335
2.000000 1.981763
2.200000 1.890536
2.400000 1.797093
2.600000 1.702907
2.800000 1.609464
3.000000 1.518237
3.200000 1.430665
3.400000 1.348130
3.600000 1.271932
3.800000 1.203274
4.000000 1.143237
4.200000 1.092770
4.400000 1.052668
4.600000 1.023563
4.800000 1.005914
5.000000 1.000000
5.200000 1.001971
5.400000 1.007854
5.600000 1.017556
5.800000 1.030923
6.000000 1.047746
6.200000 1.067758
6.400000 1.090644
6.600000 1.116043
6.800000 1.143555
7.000000 1.172746
7.200000 1.203155
7.400000 1.234302
7.600000 1.265698
7.800000 1.296845
8.000000 1.327254
8.200000 1.356445
8.400000 1.383957
8.600000 1.409356
8.800000 1.432242
9.000000 1.452254
9.200000 1.469077
9.400000 1.482444
9.600000 1.492146
9.800000 1.498029
10.000000 1.500000
