TITLE = "vncfd python"
VARIABLES = "X", "Y"
ZONE T="1", I= 51, J= 31
0.000000 0.000000
0.005080 0.000000
0.010160 0.000000
0.015240 0.000000
0.020320 0.000000
0.025400 0.000000
0.030480 0.000000
0.035560 0.000000
0.040640 0.000000
0.045720 0.000000
0.050800 0.000000
0.055880 0.000000
0.060960 0.000000
0.066040 0.000000
0.071120 0.000000
0.076200 0.000000
0.081280 0.000000
0.086360 0.000000
0.091440 0.000000
0.096520 0.000000
0.101600 0.000000
0.106680 0.000000
0.111760 0.000000
0.116840 0.000000
0.121920 0.000000
0.127000 0.000000
0.132080 0.000000
0.137160 0.000000
0.142240 0.000000
0.147320 0.000000
0.152400 0.000000
0.157480 0.000000
0.162560 0.000000
0.167640 0.000000
0.172720 0.000000
0.177800 0.000000
0.182880 0.000000
0.187960 0.000000
0.193040 0.000000
0.198120 0.000000
0.203200 0.000000
0.208280 0.000000
0.213360 0.000000
0.218440 0.000000
0.223520 0.000000
0.228600 0.000000
0.233680 0.000000
0.238760 0.000000
0.243840 0.000000
0.248920 0.000000
0.254000 0.000000
0.000000 0.000254
0.005080 0.000254
0.010160 0.000254
0.015240 0.000254
0.020320 0.000254
0.025400 0.000254
0.030480 0.000254
0.035560 0.000254
0.040640 0.000254
0.045720 0.000254
0.050800 0.000254
0.055880 0.000254
0.060960 0.000254
0.066040 0.000254
0.071120 0.000254
0.076200 0.000254
0.081280 0.000254
0.086360 0.000254
0.091440 0.000254
0.096520 0.000254
0.101600 0.000254
0.106680 0.000254
0.111760 0.000254
0.116840 0.000254
0.121920 0.000254
0.127000 0.000254
0.132080 0.000254
0.137160 0.000254
0.142240 0.000254
0.147320 0.000254
0.152400 0.000254
0.157480 0.000254
0.162560 0.000254
0.167640 0.000254
0.172720 0.000254
0.177800 0.000254
0.182880 0.000254
0.187960 0.000254
0.193040 0.000254
0.198120 0.000254
0.203200 0.000254
0.208280 0.000254
0.213360 0.000254
0.218440 0.000254
0.223520 0.000254
0.228600 0.000254
0.233680 0.000254
0.238760 0.000254
0.243840 0.000254
0.248920 0.000254
0.254000 0.000254
0.000000 0.000556
0.005080 0.000556
0.010160 0.000556
0.015240 0.000556
0.020320 0.000555
0.025400 0.000555
0.030480 0.000555
0.035560 0.000554
0.040640 0.000553
0.045720 0.000553
0.050800 0.000552
0.055880 0.000551
0.060960 0.000550
0.066040 0.000549
0.071120 0.000548
0.076200 0.000546
0.081280 0.000545
0.086360 0.000544
0.091440 0.000543
0.096520 0.000542
0.101600 0.000541
0.106680 0.000540
0.111760 0.000539
0.116840 0.000538
0.121920 0.000538
0.127000 0.000538
0.132080 0.000538
0.137160 0.000538
0.142240 0.000538
0.147320 0.000538
0.152400 0.000539
0.157480 0.000539
0.162560 0.000540
0.167640 0.000540
0.172720 0.000541
0.177800 0.000541
0.182880 0.000542
0.187960 0.000542
0.193040 0.000543
0.198120 0.000543
0.203200 0.000544
0.208280 0.000544
0.213360 0.000545
0.218440 0.000545
0.223520 0.000545
0.228600 0.000546
0.233680 0.000546
0.238760 0.000546
0.243840 0.000546
0.248920 0.000546
0.254000 0.000546
0.000000 0.000914
0.005080 0.000914
0.010160 0.000913
0.015240 0.000913
0.020320 0.000912
0.025400 0.000910
0.030480 0.000909
0.035560 0.000907
0.040640 0.000904
0.045720 0.000902
0.050800 0.000899
0.055880 0.000896
0.060960 0.000893
0.066040 0.000889
0.071120 0.000885
0.076200 0.000881
0.081280 0.000878
0.086360 0.000874
0.091440 0.000870
0.096520 0.000866
0.101600 0.000862
0.106680 0.000859
0.111760 0.000857
0.116840 0.000855
0.121920 0.000854
0.127000 0.000853
0.132080 0.000854
0.137160 0.000854
0.142240 0.000855
0.147320 0.000855
0.152400 0.000857
0.157480 0.000858
0.162560 0.000859
0.167640 0.000861
0.172720 0.000863
0.177800 0.000864
0.182880 0.000866
0.187960 0.000868
0.193040 0.000869
0.198120 0.000871
0.203200 0.000873
0.208280 0.000874
0.213360 0.000875
0.218440 0.000877
0.223520 0.000878
0.228600 0.000879
0.233680 0.000879
0.238760 0.000880
0.243840 0.000880
0.248920 0.000881
0.254000 0.000881
0.000000 0.001336
0.005080 0.001335
0.010160 0.001334
0.015240 0.001332
0.020320 0.001330
0.025400 0.001327
0.030480 0.001323
0.035560 0.001319
0.040640 0.001314
0.045720 0.001308
0.050800 0.001302
0.055880 0.001295
0.060960 0.001288
0.066040 0.001280
0.071120 0.001272
0.076200 0.001263
0.081280 0.001255
0.086360 0.001246
0.091440 0.001238
0.096520 0.001230
0.101600 0.001222
0.106680 0.001216
0.111760 0.001210
0.116840 0.001206
0.121920 0.001203
0.127000 0.001203
0.132080 0.001203
0.137160 0.001204
0.142240 0.001205
0.147320 0.001207
0.152400 0.001209
0.157480 0.001212
0.162560 0.001215
0.167640 0.001219
0.172720 0.001222
0.177800 0.001226
0.182880 0.001229
0.187960 0.001233
0.193040 0.001237
0.198120 0.001240
0.203200 0.001244
0.208280 0.001247
0.213360 0.001250
0.218440 0.001252
0.223520 0.001255
0.228600 0.001257
0.233680 0.001259
0.238760 0.001260
0.243840 0.001261
0.248920 0.001261
0.254000 0.001262
0.000000 0.001828
0.005080 0.001828
0.010160 0.001826
0.015240 0.001823
0.020320 0.001818
0.025400 0.001813
0.030480 0.001806
0.035560 0.001797
0.040640 0.001788
0.045720 0.001778
0.050800 0.001766
0.055880 0.001754
0.060960 0.001740
0.066040 0.001726
0.071120 0.001711
0.076200 0.001696
0.081280 0.001680
0.086360 0.001664
0.091440 0.001649
0.096520 0.001635
0.101600 0.001621
0.106680 0.001610
0.111760 0.001600
0.116840 0.001593
0.121920 0.001588
0.127000 0.001587
0.132080 0.001587
0.137160 0.001589
0.142240 0.001591
0.147320 0.001595
0.152400 0.001599
0.157480 0.001604
0.162560 0.001609
0.167640 0.001615
0.172720 0.001622
0.177800 0.001628
0.182880 0.001635
0.187960 0.001641
0.193040 0.001648
0.198120 0.001654
0.203200 0.001660
0.208280 0.001666
0.213360 0.001671
0.218440 0.001676
0.223520 0.001680
0.228600 0.001684
0.233680 0.001687
0.238760 0.001689
0.243840 0.001691
0.248920 0.001692
0.254000 0.001692
0.000000 0.002401
0.005080 0.002400
0.010160 0.002396
0.015240 0.002391
0.020320 0.002384
0.025400 0.002374
0.030480 0.002363
0.035560 0.002349
0.040640 0.002334
0.045720 0.002316
0.050800 0.002297
0.055880 0.002276
0.060960 0.002254
0.066040 0.002231
0.071120 0.002207
0.076200 0.002182
0.081280 0.002156
0.086360 0.002131
0.091440 0.002107
0.096520 0.002083
0.101600 0.002062
0.106680 0.002044
0.111760 0.002028
0.116840 0.002017
0.121920 0.002010
0.127000 0.002007
0.132080 0.002008
0.137160 0.002010
0.142240 0.002014
0.147320 0.002020
0.152400 0.002026
0.157480 0.002034
0.162560 0.002043
0.167640 0.002052
0.172720 0.002062
0.177800 0.002073
0.182880 0.002083
0.187960 0.002094
0.193040 0.002105
0.198120 0.002115
0.203200 0.002125
0.208280 0.002134
0.213360 0.002142
0.218440 0.002150
0.223520 0.002157
0.228600 0.002163
0.233680 0.002168
0.238760 0.002171
0.243840 0.002174
0.248920 0.002176
0.254000 0.002176
0.000000 0.003059
0.005080 0.003057
0.010160 0.003052
0.015240 0.003044
0.020320 0.003032
0.025400 0.003018
0.030480 0.003000
0.035560 0.002979
0.040640 0.002955
0.045720 0.002929
0.050800 0.002899
0.055880 0.002868
0.060960 0.002834
0.066040 0.002798
0.071120 0.002762
0.076200 0.002724
0.081280 0.002686
0.086360 0.002648
0.091440 0.002611
0.096520 0.002577
0.101600 0.002545
0.106680 0.002517
0.111760 0.002495
0.116840 0.002478
0.121920 0.002467
0.127000 0.002464
0.132080 0.002465
0.137160 0.002468
0.142240 0.002474
0.147320 0.002482
0.152400 0.002492
0.157480 0.002503
0.162560 0.002516
0.167640 0.002530
0.172720 0.002545
0.177800 0.002561
0.182880 0.002576
0.187960 0.002592
0.193040 0.002608
0.198120 0.002623
0.203200 0.002638
0.208280 0.002652
0.213360 0.002664
0.218440 0.002676
0.223520 0.002686
0.228600 0.002695
0.233680 0.002703
0.238760 0.002708
0.243840 0.002713
0.248920 0.002715
0.254000 0.002716
0.000000 0.003808
0.005080 0.003806
0.010160 0.003798
0.015240 0.003786
0.020320 0.003769
0.025400 0.003748
0.030480 0.003722
0.035560 0.003691
0.040640 0.003657
0.045720 0.003618
0.050800 0.003576
0.055880 0.003530
0.060960 0.003481
0.066040 0.003430
0.071120 0.003377
0.076200 0.003323
0.081280 0.003269
0.086360 0.003215
0.091440 0.003163
0.096520 0.003114
0.101600 0.003070
0.106680 0.003031
0.111760 0.002999
0.116840 0.002975
0.121920 0.002961
0.127000 0.002956
0.132080 0.002957
0.137160 0.002962
0.142240 0.002970
0.147320 0.002981
0.152400 0.002995
0.157480 0.003011
0.162560 0.003029
0.167640 0.003049
0.172720 0.003070
0.177800 0.003092
0.182880 0.003114
0.187960 0.003137
0.193040 0.003159
0.198120 0.003180
0.203200 0.003201
0.208280 0.003221
0.213360 0.003239
0.218440 0.003255
0.223520 0.003270
0.228600 0.003282
0.233680 0.003293
0.238760 0.003301
0.243840 0.003307
0.248920 0.003311
0.254000 0.003312
0.000000 0.004651
0.005080 0.004648
0.010160 0.004637
0.015240 0.004620
0.020320 0.004597
0.025400 0.004567
0.030480 0.004530
0.035560 0.004488
0.040640 0.004439
0.045720 0.004386
0.050800 0.004327
0.055880 0.004263
0.060960 0.004196
0.066040 0.004126
0.071120 0.004053
0.076200 0.003979
0.081280 0.003905
0.086360 0.003832
0.091440 0.003761
0.096520 0.003695
0.101600 0.003635
0.106680 0.003583
0.111760 0.003540
0.116840 0.003508
0.121920 0.003489
0.127000 0.003482
0.132080 0.003484
0.137160 0.003491
0.142240 0.003502
0.147320 0.003517
0.152400 0.003535
0.157480 0.003557
0.162560 0.003581
0.167640 0.003607
0.172720 0.003636
0.177800 0.003665
0.182880 0.003695
0.187960 0.003726
0.193040 0.003756
0.198120 0.003785
0.203200 0.003813
0.208280 0.003839
0.213360 0.003864
0.218440 0.003886
0.223520 0.003906
0.228600 0.003923
0.233680 0.003938
0.238760 0.003949
0.243840 0.003957
0.248920 0.003962
0.254000 0.003964
0.000000 0.005587
0.005080 0.005582
0.010160 0.005569
0.015240 0.005546
0.020320 0.005514
0.025400 0.005473
0.030480 0.005424
0.035560 0.005367
0.040640 0.005302
0.045720 0.005230
0.050800 0.005151
0.055880 0.005066
0.060960 0.004977
0.066040 0.004883
0.071120 0.004787
0.076200 0.004689
0.081280 0.004592
0.086360 0.004496
0.091440 0.004404
0.096520 0.004317
0.101600 0.004239
0.106680 0.004171
0.111760 0.004116
0.116840 0.004075
0.121920 0.004049
0.127000 0.004041
0.132080 0.004044
0.137160 0.004052
0.142240 0.004066
0.147320 0.004085
0.152400 0.004109
0.157480 0.004137
0.162560 0.004168
0.167640 0.004203
0.172720 0.004240
0.177800 0.004278
0.182880 0.004317
0.187960 0.004357
0.193040 0.004396
0.198120 0.004434
0.203200 0.004471
0.208280 0.004506
0.213360 0.004538
0.218440 0.004567
0.223520 0.004593
0.228600 0.004616
0.233680 0.004635
0.238760 0.004650
0.243840 0.004661
0.248920 0.004667
0.254000 0.004669
0.000000 0.006611
0.005080 0.006605
0.010160 0.006587
0.015240 0.006557
0.020320 0.006515
0.025400 0.006462
0.030480 0.006398
0.035560 0.006324
0.040640 0.006239
0.045720 0.006146
0.050800 0.006044
0.055880 0.005934
0.060960 0.005819
0.066040 0.005698
0.071120 0.005575
0.076200 0.005449
0.081280 0.005325
0.086360 0.005203
0.091440 0.005086
0.096520 0.004977
0.101600 0.004878
0.106680 0.004792
0.111760 0.004722
0.116840 0.004671
0.121920 0.004639
0.127000 0.004628
0.132080 0.004632
0.137160 0.004642
0.142240 0.004660
0.147320 0.004684
0.152400 0.004714
0.157480 0.004749
0.162560 0.004789
0.167640 0.004832
0.172720 0.004878
0.177800 0.004927
0.182880 0.004976
0.187960 0.005026
0.193040 0.005076
0.198120 0.005124
0.203200 0.005171
0.208280 0.005215
0.213360 0.005256
0.218440 0.005294
0.223520 0.005327
0.228600 0.005356
0.233680 0.005380
0.238760 0.005399
0.243840 0.005413
0.248920 0.005421
0.254000 0.005424
0.000000 0.007714
0.005080 0.007706
0.010160 0.007683
0.015240 0.007645
0.020320 0.007592
0.025400 0.007525
0.030480 0.007444
0.035560 0.007350
0.040640 0.007243
0.045720 0.007125
0.050800 0.006996
0.055880 0.006859
0.060960 0.006714
0.066040 0.006563
0.071120 0.006409
0.076200 0.006253
0.081280 0.006098
0.086360 0.005947
0.091440 0.005802
0.096520 0.005667
0.101600 0.005546
0.106680 0.005441
0.111760 0.005355
0.116840 0.005292
0.121920 0.005253
0.127000 0.005240
0.132080 0.005244
0.137160 0.005257
0.142240 0.005279
0.147320 0.005308
0.152400 0.005344
0.157480 0.005388
0.162560 0.005436
0.167640 0.005490
0.172720 0.005547
0.177800 0.005606
0.182880 0.005667
0.187960 0.005729
0.193040 0.005790
0.198120 0.005850
0.203200 0.005908
0.208280 0.005962
0.213360 0.006013
0.218440 0.006059
0.223520 0.006101
0.228600 0.006137
0.233680 0.006167
0.238760 0.006190
0.243840 0.006207
0.248920 0.006218
0.254000 0.006221
0.000000 0.008881
0.005080 0.008871
0.010160 0.008843
0.015240 0.008796
0.020320 0.008731
0.025400 0.008648
0.030480 0.008548
0.035560 0.008432
0.040640 0.008300
0.045720 0.008155
0.050800 0.007998
0.055880 0.007829
0.060960 0.007652
0.066040 0.007469
0.071120 0.007281
0.076200 0.007091
0.081280 0.006903
0.086360 0.006720
0.091440 0.006546
0.096520 0.006384
0.101600 0.006237
0.106680 0.006111
0.111760 0.006009
0.116840 0.005933
0.121920 0.005886
0.127000 0.005870
0.132080 0.005876
0.137160 0.005891
0.142240 0.005917
0.147320 0.005952
0.152400 0.005996
0.157480 0.006047
0.162560 0.006106
0.167640 0.006170
0.172720 0.006238
0.177800 0.006310
0.182880 0.006383
0.187960 0.006458
0.193040 0.006531
0.198120 0.006604
0.203200 0.006673
0.208280 0.006739
0.213360 0.006801
0.218440 0.006857
0.223520 0.006907
0.228600 0.006950
0.233680 0.006987
0.238760 0.007015
0.243840 0.007036
0.248920 0.007048
0.254000 0.007053
0.000000 0.010093
0.005080 0.010082
0.010160 0.010048
0.015240 0.009991
0.020320 0.009912
0.025400 0.009813
0.030480 0.009693
0.035560 0.009553
0.040640 0.009396
0.045720 0.009222
0.050800 0.009033
0.055880 0.008832
0.060960 0.008621
0.066040 0.008402
0.071120 0.008179
0.076200 0.007954
0.081280 0.007731
0.086360 0.007515
0.091440 0.007309
0.096520 0.007117
0.101600 0.006945
0.106680 0.006797
0.111760 0.006676
0.116840 0.006587
0.121920 0.006533
0.127000 0.006514
0.132080 0.006521
0.137160 0.006539
0.142240 0.006569
0.147320 0.006610
0.152400 0.006661
0.157480 0.006722
0.162560 0.006790
0.167640 0.006866
0.172720 0.006946
0.177800 0.007030
0.182880 0.007117
0.187960 0.007204
0.193040 0.007291
0.198120 0.007377
0.203200 0.007459
0.208280 0.007537
0.213360 0.007609
0.218440 0.007676
0.223520 0.007735
0.228600 0.007787
0.233680 0.007830
0.238760 0.007864
0.243840 0.007888
0.248920 0.007903
0.254000 0.007908
0.000000 0.011329
0.005080 0.011316
0.010160 0.011276
0.015240 0.011209
0.020320 0.011117
0.025400 0.011000
0.030480 0.010859
0.035560 0.010695
0.040640 0.010511
0.045720 0.010307
0.050800 0.010087
0.055880 0.009852
0.060960 0.009605
0.066040 0.009350
0.071120 0.009090
0.076200 0.008829
0.081280 0.008570
0.086360 0.008319
0.091440 0.008081
0.096520 0.007860
0.101600 0.007661
0.106680 0.007490
0.111760 0.007351
0.116840 0.007249
0.121920 0.007186
0.127000 0.007165
0.132080 0.007172
0.137160 0.007193
0.142240 0.007228
0.147320 0.007275
0.152400 0.007334
0.157480 0.007404
0.162560 0.007483
0.167640 0.007570
0.172720 0.007662
0.177800 0.007759
0.182880 0.007859
0.187960 0.007960
0.193040 0.008061
0.198120 0.008160
0.203200 0.008255
0.208280 0.008345
0.213360 0.008429
0.218440 0.008506
0.223520 0.008575
0.228600 0.008635
0.233680 0.008685
0.238760 0.008724
0.243840 0.008753
0.248920 0.008770
0.254000 0.008776
0.000000 0.012565
0.005080 0.012550
0.010160 0.012504
0.015240 0.012427
0.020320 0.012322
0.025400 0.012187
0.030480 0.012025
0.035560 0.011837
0.040640 0.011626
0.045720 0.011393
0.050800 0.011140
0.055880 0.010872
0.060960 0.010590
0.066040 0.010298
0.071120 0.010002
0.076200 0.009704
0.081280 0.009410
0.086360 0.009124
0.091440 0.008853
0.096520 0.008602
0.101600 0.008377
0.106680 0.008184
0.111760 0.008027
0.116840 0.007911
0.121920 0.007840
0.127000 0.007816
0.132080 0.007824
0.137160 0.007848
0.142240 0.007887
0.147320 0.007940
0.152400 0.008007
0.157480 0.008086
0.162560 0.008175
0.167640 0.008273
0.172720 0.008378
0.177800 0.008489
0.182880 0.008602
0.187960 0.008717
0.193040 0.008831
0.198120 0.008943
0.203200 0.009051
0.208280 0.009153
0.213360 0.009249
0.218440 0.009337
0.223520 0.009415
0.228600 0.009483
0.233680 0.009540
0.238760 0.009584
0.243840 0.009617
0.248920 0.009637
0.254000 0.009643
0.000000 0.013778
0.005080 0.013760
0.010160 0.013709
0.015240 0.013623
0.020320 0.013503
0.025400 0.013352
0.030480 0.013170
0.035560 0.012959
0.040640 0.012721
0.045720 0.012459
0.050800 0.012176
0.055880 0.011874
0.060960 0.011558
0.066040 0.011232
0.071120 0.010900
0.076200 0.010566
0.081280 0.010237
0.086360 0.009918
0.091440 0.009616
0.096520 0.009336
0.101600 0.009085
0.106680 0.008869
0.111760 0.008694
0.116840 0.008566
0.121920 0.008487
0.127000 0.008460
0.132080 0.008469
0.137160 0.008495
0.142240 0.008539
0.147320 0.008598
0.152400 0.008673
0.157480 0.008761
0.162560 0.008860
0.167640 0.008969
0.172720 0.009086
0.177800 0.009209
0.182880 0.009335
0.187960 0.009463
0.193040 0.009591
0.198120 0.009716
0.203200 0.009836
0.208280 0.009951
0.213360 0.010058
0.218440 0.010156
0.223520 0.010243
0.228600 0.010319
0.233680 0.010383
0.238760 0.010433
0.243840 0.010469
0.248920 0.010491
0.254000 0.010498
0.000000 0.014945
0.005080 0.014926
0.010160 0.014868
0.015240 0.014773
0.020320 0.014642
0.025400 0.014475
0.030480 0.014274
0.035560 0.014041
0.040640 0.013779
0.045720 0.013490
0.050800 0.013177
0.055880 0.012845
0.060960 0.012497
0.066040 0.012137
0.071120 0.011771
0.076200 0.011404
0.081280 0.011043
0.086360 0.010692
0.091440 0.010360
0.096520 0.010052
0.101600 0.009777
0.106680 0.009540
0.111760 0.009348
0.116840 0.009207
0.121920 0.009120
0.127000 0.009091
0.132080 0.009100
0.137160 0.009129
0.142240 0.009177
0.147320 0.009242
0.152400 0.009324
0.157480 0.009420
0.162560 0.009530
0.167640 0.009650
0.172720 0.009778
0.177800 0.009913
0.182880 0.010052
0.187960 0.010192
0.193040 0.010332
0.198120 0.010469
0.203200 0.010602
0.208280 0.010728
0.213360 0.010845
0.218440 0.010953
0.223520 0.011049
0.228600 0.011133
0.233680 0.011203
0.238760 0.011258
0.243840 0.011298
0.248920 0.011322
0.254000 0.011330
0.000000 0.016047
0.005080 0.016027
0.010160 0.015964
0.015240 0.015861
0.020320 0.015719
0.025400 0.015537
0.030480 0.015319
0.035560 0.015067
0.040640 0.014782
0.045720 0.014469
0.050800 0.014130
0.055880 0.013770
0.060960 0.013392
0.066040 0.013002
0.071120 0.012606
0.076200 0.012208
0.081280 0.011816
0.086360 0.011436
0.091440 0.011076
0.096520 0.010743
0.101600 0.010445
0.106680 0.010188
0.111760 0.009981
0.116840 0.009828
0.121920 0.009734
0.127000 0.009702
0.132080 0.009713
0.137160 0.009744
0.142240 0.009796
0.147320 0.009867
0.152400 0.009955
0.157480 0.010059
0.162560 0.010177
0.167640 0.010307
0.172720 0.010446
0.177800 0.010592
0.182880 0.010742
0.187960 0.010895
0.193040 0.011046
0.198120 0.011195
0.203200 0.011338
0.208280 0.011475
0.213360 0.011602
0.218440 0.011719
0.223520 0.011823
0.228600 0.011914
0.233680 0.011989
0.238760 0.012049
0.243840 0.012092
0.248920 0.012118
0.254000 0.012127
0.000000 0.017071
0.005080 0.017049
0.010160 0.016983
0.015240 0.016873
0.020320 0.016720
0.025400 0.016527
0.030480 0.016294
0.035560 0.016024
0.040640 0.015720
0.045720 0.015385
0.050800 0.015023
0.055880 0.014637
0.060960 0.014234
0.066040 0.013817
0.071120 0.013393
0.076200 0.012968
0.081280 0.012549
0.086360 0.012143
0.091440 0.011758
0.096520 0.011402
0.101600 0.011083
0.106680 0.010809
0.111760 0.010587
0.116840 0.010424
0.121920 0.010323
0.127000 0.010290
0.132080 0.010301
0.137160 0.010334
0.142240 0.010390
0.147320 0.010465
0.152400 0.010560
0.157480 0.010671
0.162560 0.010797
0.167640 0.010936
0.172720 0.011085
0.177800 0.011241
0.182880 0.011401
0.187960 0.011564
0.193040 0.011726
0.198120 0.011885
0.203200 0.012039
0.208280 0.012185
0.213360 0.012321
0.218440 0.012445
0.223520 0.012557
0.228600 0.012654
0.233680 0.012734
0.238760 0.012798
0.243840 0.012845
0.248920 0.012873
0.254000 0.012882
0.000000 0.018007
0.005080 0.017984
0.010160 0.017914
0.015240 0.017798
0.020320 0.017637
0.025400 0.017433
0.030480 0.017187
0.035560 0.016903
0.040640 0.016582
0.045720 0.016229
0.050800 0.015847
0.055880 0.015441
0.060960 0.015015
0.066040 0.014575
0.071120 0.014127
0.076200 0.013679
0.081280 0.013236
0.086360 0.012807
0.091440 0.012400
0.096520 0.012024
0.101600 0.011687
0.106680 0.011397
0.111760 0.011163
0.116840 0.010990
0.121920 0.010884
0.127000 0.010848
0.132080 0.010860
0.137160 0.010896
0.142240 0.010954
0.147320 0.011034
0.152400 0.011134
0.157480 0.011251
0.162560 0.011385
0.167640 0.011532
0.172720 0.011689
0.177800 0.011854
0.182880 0.012023
0.187960 0.012195
0.193040 0.012367
0.198120 0.012535
0.203200 0.012697
0.208280 0.012851
0.213360 0.012995
0.218440 0.013126
0.223520 0.013244
0.228600 0.013346
0.233680 0.013432
0.238760 0.013499
0.243840 0.013548
0.248920 0.013577
0.254000 0.013587
0.000000 0.018850
0.005080 0.018826
0.010160 0.018753
0.015240 0.018632
0.020320 0.018465
0.025400 0.018252
0.030480 0.017996
0.035560 0.017699
0.040640 0.017365
0.045720 0.016997
0.050800 0.016598
0.055880 0.016174
0.060960 0.015730
0.066040 0.015271
0.071120 0.014803
0.076200 0.014334
0.081280 0.013872
0.086360 0.013424
0.091440 0.012999
0.096520 0.012605
0.101600 0.012253
0.106680 0.011949
0.111760 0.011704
0.116840 0.011523
0.121920 0.011412
0.127000 0.011375
0.132080 0.011387
0.137160 0.011424
0.142240 0.011485
0.147320 0.011569
0.152400 0.011673
0.157480 0.011797
0.162560 0.011937
0.167640 0.012090
0.172720 0.012254
0.177800 0.012427
0.182880 0.012605
0.187960 0.012784
0.193040 0.012963
0.198120 0.013139
0.203200 0.013309
0.208280 0.013470
0.213360 0.013620
0.218440 0.013757
0.223520 0.013880
0.228600 0.013987
0.233680 0.014076
0.238760 0.014147
0.243840 0.014198
0.248920 0.014229
0.254000 0.014239
0.000000 0.019600
0.005080 0.019574
0.010160 0.019499
0.015240 0.019375
0.020320 0.019202
0.025400 0.018982
0.030480 0.018718
0.035560 0.018412
0.040640 0.018067
0.045720 0.017686
0.050800 0.017274
0.055880 0.016836
0.060960 0.016377
0.066040 0.015902
0.071120 0.015419
0.076200 0.014934
0.081280 0.014455
0.086360 0.013991
0.091440 0.013551
0.096520 0.013143
0.101600 0.012777
0.106680 0.012463
0.111760 0.012208
0.116840 0.012021
0.121920 0.011906
0.127000 0.011867
0.132080 0.011880
0.137160 0.011918
0.142240 0.011982
0.147320 0.012068
0.152400 0.012177
0.157480 0.012305
0.162560 0.012450
0.167640 0.012609
0.172720 0.012779
0.177800 0.012958
0.182880 0.013142
0.187960 0.013328
0.193040 0.013514
0.198120 0.013696
0.203200 0.013872
0.208280 0.014038
0.213360 0.014194
0.218440 0.014336
0.223520 0.014464
0.228600 0.014574
0.233680 0.014667
0.238760 0.014740
0.243840 0.014793
0.248920 0.014824
0.254000 0.014835
0.000000 0.020258
0.005080 0.020232
0.010160 0.020155
0.015240 0.020027
0.020320 0.019850
0.025400 0.019626
0.030480 0.019355
0.035560 0.019042
0.040640 0.018688
0.045720 0.018298
0.050800 0.017876
0.055880 0.017427
0.060960 0.016956
0.066040 0.016470
0.071120 0.015974
0.076200 0.015476
0.081280 0.014984
0.086360 0.014508
0.091440 0.014055
0.096520 0.013636
0.101600 0.013260
0.106680 0.012937
0.111760 0.012675
0.116840 0.012482
0.121920 0.012363
0.127000 0.012323
0.132080 0.012337
0.137160 0.012376
0.142240 0.012441
0.147320 0.012531
0.152400 0.012642
0.157480 0.012774
0.162560 0.012923
0.167640 0.013087
0.172720 0.013262
0.177800 0.013446
0.182880 0.013635
0.187960 0.013827
0.193040 0.014018
0.198120 0.014205
0.203200 0.014385
0.208280 0.014556
0.213360 0.014716
0.218440 0.014863
0.223520 0.014993
0.228600 0.015107
0.233680 0.015202
0.238760 0.015277
0.243840 0.015331
0.248920 0.015364
0.254000 0.015375
0.000000 0.020830
0.005080 0.020804
0.010160 0.020725
0.015240 0.020596
0.020320 0.020416
0.025400 0.020187
0.030480 0.019912
0.035560 0.019593
0.040640 0.019234
0.045720 0.018837
0.050800 0.018408
0.055880 0.017950
0.060960 0.017471
0.066040 0.016975
0.071120 0.016469
0.076200 0.015962
0.081280 0.015461
0.086360 0.014974
0.091440 0.014513
0.096520 0.014085
0.101600 0.013701
0.106680 0.013371
0.111760 0.013103
0.116840 0.012905
0.121920 0.012784
0.127000 0.012744
0.132080 0.012757
0.137160 0.012798
0.142240 0.012864
0.147320 0.012956
0.152400 0.013070
0.157480 0.013204
0.162560 0.013357
0.167640 0.013524
0.172720 0.013703
0.177800 0.013891
0.182880 0.014084
0.187960 0.014280
0.193040 0.014474
0.198120 0.014665
0.203200 0.014849
0.208280 0.015024
0.213360 0.015187
0.218440 0.015336
0.223520 0.015470
0.228600 0.015586
0.233680 0.015682
0.238760 0.015759
0.243840 0.015814
0.248920 0.015847
0.254000 0.015859
0.000000 0.021323
0.005080 0.021296
0.010160 0.021217
0.015240 0.021086
0.020320 0.020904
0.025400 0.020673
0.030480 0.020394
0.035560 0.020072
0.040640 0.019708
0.045720 0.019306
0.050800 0.018872
0.055880 0.018409
0.060960 0.017923
0.066040 0.017421
0.071120 0.016908
0.076200 0.016394
0.081280 0.015886
0.086360 0.015393
0.091440 0.014924
0.096520 0.014490
0.101600 0.014100
0.106680 0.013765
0.111760 0.013493
0.116840 0.013292
0.121920 0.013169
0.127000 0.013128
0.132080 0.013142
0.137160 0.013183
0.142240 0.013251
0.147320 0.013343
0.152400 0.013459
0.157480 0.013596
0.162560 0.013751
0.167640 0.013920
0.172720 0.014102
0.177800 0.014293
0.182880 0.014489
0.187960 0.014688
0.193040 0.014885
0.198120 0.015079
0.203200 0.015266
0.208280 0.015443
0.213360 0.015609
0.218440 0.015760
0.223520 0.015895
0.228600 0.016013
0.233680 0.016111
0.238760 0.016188
0.243840 0.016244
0.248920 0.016278
0.254000 0.016290
0.000000 0.021744
0.005080 0.021718
0.010160 0.021638
0.015240 0.021506
0.020320 0.021322
0.025400 0.021089
0.030480 0.020809
0.035560 0.020484
0.040640 0.020117
0.045720 0.019713
0.050800 0.019275
0.055880 0.018808
0.060960 0.018318
0.066040 0.017811
0.071120 0.017295
0.076200 0.016776
0.081280 0.016263
0.086360 0.015765
0.091440 0.015292
0.096520 0.014854
0.101600 0.014460
0.106680 0.014121
0.111760 0.013846
0.116840 0.013643
0.121920 0.013519
0.127000 0.013477
0.132080 0.013491
0.137160 0.013533
0.142240 0.013601
0.147320 0.013695
0.152400 0.013812
0.157480 0.013950
0.162560 0.014107
0.167640 0.014278
0.172720 0.014462
0.177800 0.014655
0.182880 0.014853
0.187960 0.015053
0.193040 0.015253
0.198120 0.015448
0.203200 0.015637
0.208280 0.015816
0.213360 0.015983
0.218440 0.016136
0.223520 0.016272
0.228600 0.016391
0.233680 0.016490
0.238760 0.016568
0.243840 0.016625
0.248920 0.016659
0.254000 0.016670
0.000000 0.022102
0.005080 0.022075
0.010160 0.021995
0.015240 0.021863
0.020320 0.021679
0.025400 0.021445
0.030480 0.021163
0.035560 0.020837
0.040640 0.020468
0.045720 0.020062
0.050800 0.019622
0.055880 0.019153
0.060960 0.018661
0.066040 0.018152
0.071120 0.017633
0.076200 0.017111
0.081280 0.016595
0.086360 0.016095
0.091440 0.015619
0.096520 0.015178
0.101600 0.014782
0.106680 0.014441
0.111760 0.014164
0.116840 0.013960
0.121920 0.013835
0.127000 0.013793
0.132080 0.013807
0.137160 0.013849
0.142240 0.013918
0.147320 0.014012
0.152400 0.014130
0.157480 0.014269
0.162560 0.014426
0.167640 0.014599
0.172720 0.014784
0.177800 0.014978
0.182880 0.015177
0.187960 0.015379
0.193040 0.015579
0.198120 0.015776
0.203200 0.015966
0.208280 0.016146
0.213360 0.016314
0.218440 0.016468
0.223520 0.016605
0.228600 0.016724
0.233680 0.016823
0.238760 0.016902
0.243840 0.016959
0.248920 0.016993
0.254000 0.017005
0.000000 0.022404
0.005080 0.022378
0.010160 0.022297
0.015240 0.022164
0.020320 0.021980
0.025400 0.021746
0.030480 0.021464
0.035560 0.021137
0.040640 0.020768
0.045720 0.020361
0.050800 0.019920
0.055880 0.019450
0.060960 0.018957
0.066040 0.018447
0.071120 0.017926
0.076200 0.017403
0.081280 0.016887
0.086360 0.016385
0.091440 0.015908
0.096520 0.015466
0.101600 0.015068
0.106680 0.014726
0.111760 0.014449
0.116840 0.014244
0.121920 0.014119
0.127000 0.014076
0.132080 0.014091
0.137160 0.014133
0.142240 0.014202
0.147320 0.014296
0.152400 0.014415
0.157480 0.014554
0.162560 0.014712
0.167640 0.014885
0.172720 0.015071
0.177800 0.015265
0.182880 0.015465
0.187960 0.015667
0.193040 0.015868
0.198120 0.016065
0.203200 0.016256
0.208280 0.016436
0.213360 0.016605
0.218440 0.016759
0.223520 0.016896
0.228600 0.017016
0.233680 0.017115
0.238760 0.017194
0.243840 0.017251
0.248920 0.017286
0.254000 0.017297
0.000000 0.022658
0.005080 0.022632
0.010160 0.022551
0.015240 0.022418
0.020320 0.022234
0.025400 0.022000
0.030480 0.021718
0.035560 0.021391
0.040640 0.021022
0.045720 0.020615
0.050800 0.020174
0.055880 0.019704
0.060960 0.019211
0.066040 0.018701
0.071120 0.018180
0.076200 0.017657
0.081280 0.017141
0.086360 0.016639
0.091440 0.016162
0.096520 0.015720
0.101600 0.015322
0.106680 0.014980
0.111760 0.014703
0.116840 0.014498
0.121920 0.014373
0.127000 0.014330
0.132080 0.014345
0.137160 0.014387
0.142240 0.014456
0.147320 0.014550
0.152400 0.014669
0.157480 0.014808
0.162560 0.014966
0.167640 0.015139
0.172720 0.015325
0.177800 0.015519
0.182880 0.015719
0.187960 0.015921
0.193040 0.016122
0.198120 0.016319
0.203200 0.016510
0.208280 0.016690
0.213360 0.016859
0.218440 0.017013
0.223520 0.017150
0.228600 0.017270
0.233680 0.017369
0.238760 0.017448
0.243840 0.017505
0.248920 0.017540
0.254000 0.017551
