TITLE = "vncfd field"
VARIABLES = "X", "Y", "rho", "u", "v", "p", "Mach", "T"
ZONE T="1", I=51, J=21, DATAPACKING=BLOCK, VARLOCATION=([3,4,5,6,7,8]=CELLCENTERED)
0.000000 0.200000 0.400000 0.600000 0.800000 1.000000 1.200000 1.400000 1.600000 1.800000 2.000000 2.200000 2.400000 2.600000 2.800000 3.000000 3.200000 3.400000 3.600000 3.800000 4.000000 4.200000 4.400000 4.600000 4.800000 5.000000 5.200000 5.400000 5.600000 5.800000 6.000000 6.200000 6.400000 6.600000 6.800000 7.000000 7.200000 7.400000 7.600000 7.800000 8.000000 8.200000 8.400000 8.600000 8.800000 9.000000 9.200000 9.400000 9.600000 9.800000 10.000000 0.000000 0.200000 0.400000 0.600000 0.800000 1.000000 1.200000 1.400000 1.600000 1.800000 2.000000 2.200000 2.400000 2.600000 2.800000 3.000000 3.200000 3.400000 3.600000 3.800000 4.000000 4.200000 4.400000 4.600000 4.800000 5.000000 5.200000 5.400000 5.600000 5.800000 6.000000 6.200000 6.400000 6.600000 6.800000 7.000000 7.200000 7.400000 7.600000 7.800000 8.000000 8.200000 8.400000 8.600000 8.800000 9.000000 9.200000 9.400000 9.600000 9.800000 10.000000 0.000000 0.200000 0.400000 0.600000 0.800000 1.000000 1.200000 1.400000 1.600000 1.800000 2.000000 2.200000 2.400000 2.600000 2.800000 3.000000 3.200000 3.400000 3.600000 3.800000 4.000000 4.200000 4.400000 4.600000 4.800000 5.000000 5.200000 5.400000 5.600000 5.800000 6.000000 6.200000 6.400000 6.600000 6.800000 7.000000 7.200000 7.400000 7.600000 7.800000 8.000000 8.200000 8.400000 8.600000 8.800000 9.000000 9.200000 9.400000 9.600000 9.800000 10.000000 0.000000 0.200000 0.400000 0.600000 0.800000 1.000000 1.200000 1.400000 1.600000 1.800000 2.000000 2.200000 2.400000 2.600000 2.800000 3.000000 3.200000 3.400000 3.600000 3.800000 4.000000 4.200000 4.400000 4.600000 4.800000 5.000000 5.200000 5.400000 5.600000 5.800000 6.000000 6.200000 6.400000 6.600000 6.800000 7.000000 7.200000 7.400000 7.600000 7.800000 8.000000 8.200000 8.400000 8.600000 8.800000 9.000000 9.200000 9.400000 9.600000 9.800000 10.000000 0.000000 0.200000 0.400000 0.600000 0.800000 1.000000 1.200000 1.400000 1.600000 1.800000 2.000000 2.200000 2.400000 2.600000 2.800000 3.000000 3.200000 3.400000 3.600000 3.800000 4.000000 4.200000 4.400000 4.600000 4.800000 5.000000 5.200000 5.400000 5.600000 5.800000 6.000000 6.200000 6.400000 6.600000 6.800000 7.000000 7.200000 7.400000 7.600000 7.800000 8.000000 8.200000 8.400000 8.600000 8.800000 9.000000 9.200000 9.400000 9.600000 9.800000 10.000000 0.000000 0.200000 0.400000 0.600000 0.800000 1.000000 1.200000 1.400000 1.600000 1.800000 2.000000 2.200000 2.400000 2.600000 2.800000 3.000000 3.200000 3.400000 3.600000 3.800000 4.000000 4.200000 4.400000 4.600000 4.800000 5.000000 5.200000 5.400000 5.600000 5.800000 6.000000 6.200000 6.400000 6.600000 6.800000 7.000000 7.200000 7.400000 7.600000 7.800000 8.000000 8.200000 8.400000 8.600000 8.800000 9.000000 9.200000 9.400000 9.600000 9.800000 10.000000 0.000000 0.200000 0.400000 0.600000 0.800000 1.000000 1.200000 1.400000 1.600000 1.800000 2.000000 2.200000 2.400000 2.600000 2.800000 3.000000 3.200000 3.400000 3.600000 3.800000 4.000000 4.200000 4.400000 4.600000 4.800000 5.000000 5.200000 5.400000 5.600000 5.800000 6.000000 6.200000 6.400000 6.600000 6.800000 7.000000 7.200000 7.400000 7.600000 7.800000 8.000000 8.200000 8.400000 8.600000 8.800000 9.000000 9.200000 9.400000 9.600000 9.800000 10.000000 0.000000 0.200000 0.400000 0.600000 0.800000 1.000000 1.200000 1.400000 1.600000 1.800000 2.000000 2.200000 2.400000 2.600000 2.800000 3.000000 3.200000 3.400000 3.600000 3.800000 4.000000 4.200000 4.400000 4.600000 4.800000 5.000000 5.200000 5.400000 5.600000 5.800000 6.000000 6.200000 6.400000 6.600000 6.800000 7.000000 7.200000 7.400000 7.600000 7.800000 8.000000 8.200000 8.400000 8.600000 8.800000 9.000000 9.200000 9.400000 9.600000 9.800000 10.000000 0.000000 0.200000 0.400000 0.600000 0.800000 1.000000 1.200000 1.400000 1.600000 1.800000 2.000000 2.200000 2.400000 2.600000 2.800000 3.000000 3.200000 3.400000 3.600000 3.800000 4.000000 4.200000 4.400000 4.600000 4.800000 5.000000 5.200000 5.400000 5.600000 5.800000 6.000000 6.200000 6.400000 6.600000 6.800000 7.000000 7.200000 7.400000 7.600000 7.800000 8.000000 8.200000 8.400000 8.600000 8.800000 9.000000 9.200000 9.400000 9.600000 9.800000 10.000000 0.000000 0.200000 0.400000 0.600000 0.800000 1.000000 1.200000 1.400000 1.600000 1.800000 2.000000 2.200000 2.400000 2.600000 2.800000 3.000000 3.200000 3.400000 3.600000 3.800000 4.000000 4.200000 4.400000 4.600000 4.800000 5.000000 5.200000 5.400000 5.600000 5.800000 6.000000 6.200000 6.400000 6.600000 6.800000 7.000000 7.200000 7.400000 7.600000 7.800000 8.000000 8.200000 8.400000 8.600000 8.800000 9.000000 9.200000 9.400000 9.600000 9.800000 10.000000 0.000000 0.200000 0.400000 0.600000 0.800000 1.000000 1.200000 1.400000 1.600000 1.800000 2.000000 2.200000 2.400000 2.600000 2.800000 3.000000 3.200000 3.400000 3.600000 3.800000 4.000000 4.200000 4.400000 4.600000 4.800000 5.000000 5.200000 5.400000 5.600000 5.800000 6.000000 6.200000 6.400000 6.600000 6.800000 7.000000 7.200000 7.400000 7.600000 7.800000 8.000000 8.200000 8.400000 8.600000 8.800000 9.000000 9.200000 9.400000 9.600000 9.800000 10.000000 0.000000 0.200000 0.400000 0.600000 0.800000 1.000000 1.200000 1.400000 1.600000 1.800000 2.000000 2.200000 2.400000 2.600000 2.800000 3.000000 3.200000 3.400000 3.600000 3.800000 4.000000 4.200000 4.400000 4.600000 4.800000 5.000000 5.200000 5.400000 5.600000 5.800000 6.000000 6.200000 6.400000 6.600000 6.800000 7.000000 7.200000 7.400000 7.600000 7.800000 8.000000 8.200000 8.400000 8.600000 8.800000 9.000000 9.200000 9.400000 9.600000 9.800000 10.000000 0.000000 0.200000 0.400000 0.600000 0.800000 1.000000 1.200000 1.400000 1.600000 1.800000 2.000000 2.200000 2.400000 2.600000 2.800000 3.000000 3.200000 3.400000 3.600000 3.800000 4.000000 4.200000 4.400000 4.600000 4.800000 5.000000 5.200000 5.400000 5.600000 5.800000 6.000000 6.200000 6.400000 6.600000 6.800000 7.000000 7.200000 7.400000 7.600000 7.800000 8.000000 8.200000 8.400000 8.600000 8.800000 9.000000 9.200000 9.400000 9.600000 9.800000 10.000000 0.000000 0.200000 0.400000 0.600000 0.800000 1.000000 1.200000 1.400000 1.600000 1.800000 2.000000 2.200000 2.400000 2.600000 2.800000 3.000000 3.200000 3.400000 3.600000 3.800000 4.000000 4.200000 4.400000 4.600000 4.800000 5.000000 5.200000 5.400000 5.600000 5.800000 6.000000 6.200000 6.400000 6.600000 6.800000 7.000000 7.200000 7.400000 7.600000 7.800000 8.000000 8.200000 8.400000 8.600000 8.800000 9.000000 9.200000 9.400000 9.600000 9.800000 10.000000 0.000000 0.200000 0.400000 0.600000 0.800000 1.000000 1.200000 1.400000 1.600000 1.800000 2.000000 2.200000 2.400000 2.600000 2.800000 3.000000 3.200000 3.400000 3.600000 3.800000 4.000000 4.200000 4.400000 4.600000 4.800000 5.000000 5.200000 5.400000 5.600000 5.800000 6.000000 6.200000 6.400000 6.600000 6.800000 7.000000 7.200000 7.400000 7.600000 7.800000 8.000000 8.200000 8.400000 8.600000 8.800000 9.000000 9.200000 9.400000 9.600000 9.800000 10.000000 0.000000 0.200000 0.400000 0.600000 0.800000 1.000000 1.200000 1.400000 1.600000 1.800000 2.000000 2.200000 2.400000 2.600000 2.800000 3.000000 3.200000 3.400000 3.600000 3.800000 4.000000 4.200000 4.400000 4.600000 4.800000 5.000000 5.200000 5.400000 5.600000 5.800000 6.000000 6.200000 6.400000 6.600000 6.800000 7.000000 7.200000 7.400000 7.600000 7.800000 8.000000 8.200000 8.400000 8.600000 8.800000 9.000000 9.200000 9.400000 9.600000 9.800000 10.000000 0.000000 0.200000 0.400000 0.600000 0.800000 1.000000 1.200000 1.400000 1.600000 1.800000 2.000000 2.200000 2.400000 2.600000 2.800000 3.000000 3.200000 3.400000 3.600000 3.800000 4.000000 4.200000 4.400000 4.600000 4.800000 5.000000 5.200000 5.400000 5.600000 5.800000 6.000000 6.200000 6.400000 6.600000 6.800000 7.000000 7.200000 7.400000 7.600000 7.800000 8.000000 8.200000 8.400000 8.600000 8.800000 9.000000 9.200000 9.400000 9.600000 9.800000 10.000000 0.000000 0.200000 0.400000 0.600000 0.800000 1.000000 1.200000 1.400000 1.600000 1.800000 2.000000 2.200000 2.400000 2.600000 2.800000 3.000000 3.200000 3.400000 3.600000 3.800000 4.000000 4.200000 4.400000 4.600000 4.800000 5.000000 5.200000 5.400000 5.600000 5.800000 6.000000 6.200000 6.400000 6.600000 6.800000 7.000000 7.200000 7.400000 7.600000 7.800000 8.000000 8.200000 8.400000 8.600000 8.800000 9.000000 9.200000 9.400000 9.600000 9.800000 10.000000 0.000000 0.200000 0.400000 0.600000 0.800000 1.000000 1.200000 1.400000 1.600000 1.800000 2.000000 2.200000 2.400000 2.600000 2.800000 3.000000 3.200000 3.400000 3.600000 3.800000 4.000000 4.200000 4.400000 4.600000 4.800000 5.000000 5.200000 5.400000 5.600000 5.800000 6.000000 6.200000 6.400000 6.600000 6.800000 7.000000 7.200000 7.400000 7.600000 7.800000 8.000000 8.200000 8.400000 8.600000 8.800000 9.000000 9.200000 9.400000 9.600000 9.800000 10.000000 0.000000 0.200000 0.400000 0.600000 0.800000 1.000000 1.200000 1.400000 1.600000 1.800000 2.000000 2.200000 2.400000 2.600000 2.800000 3.000000 3.200000 3.400000 3.600000 3.800000 4.000000 4.200000 4.400000 4.600000 4.800000 5.000000 5.200000 5.400000 5.600000 5.800000 6.000000 6.200000 6.400000 6.600000 6.800000 7.000000 7.200000 7.400000 7.600000 7.800000 8.000000 8.200000 8.400000 8.600000 8.800000 9.000000 9.200000 9.400000 9.600000 9.800000 10.000000 0.000000 0.200000 0.400000 0.600000 0.800000 1.000000 1.200000 1.400000 1.600000 1.800000 2.000000 2.200000 2.400000 2.600000 2.800000 3.000000 3.200000 3.400000 3.600000 3.800000 4.000000 4.200000 4.400000 4.600000 4.800000 5.000000 5.200000 5.400000 5.600000 5.800000 6.000000 6.200000 6.400000 6.600000 6.800000 7.000000 7.200000 7.400000 7.600000 7.800000 8.000000 8.200000 8.400000 8.600000 8.800000 9.000000 9.200000 9.400000 9.600000 9.800000 10.000000 
0.000000 0.000000 0.000000 0.000000 0.000000 0.000000 0.000000 0.000000 0.000000 0.000000 0.000000 0.000000 0.000000 0.000000 0.000000 0.000000 0.000000 0.000000 0.000000 0.000000 0.000000 0.000000 0.000000 0.000000 0.000000 0.000000 0.000000 0.000000 0.000000 0.000000 0.000000 0.000000 0.000000 0.000000 0.000000 0.000000 0.000000 0.000000 0.000000 0.000000 0.000000 0.000000 0.000000 0.000000 0.000000 0.000000 0.000000 0.000000 0.000000 0.000000 0.000000 0.010000 0.010000 0.010000 0.010000 0.010000 0.010000 0.010000 0.010000 0.010000 0.010000 0.010000 0.010000 0.010000 0.010000 0.010000 0.010000 0.010000 0.010000 0.010000 0.010000 0.010000 0.010000 0.010000 0.010000 0.010000 0.010000 0.010000 0.010000 0.010000 0.010000 0.010000 0.010000 0.010000 0.010000 0.010000 0.010000 0.010000 0.010000 0.010000 0.010000 0.010000 0.010000 0.010000 0.010000 0.010000 0.010000 0.010000 0.010000 0.010000 0.010000 0.010000 0.026500 0.026494 0.026477 0.026449 0.026410 0.026360 0.026299 0.026227 0.026145 0.026052 0.025950 0.025839 0.025720 0.025592 0.025459 0.025321 0.025180 0.025039 0.024901 0.024769 0.024647 0.024538 0.024449 0.024382 0.024340 0.024325 0.024330 0.024344 0.024367 0.024399 0.024438 0.024483 0.024534 0.024589 0.024647 0.024707 0.024769 0.024829 0.024889 0.024947 0.025002 0.025054 0.025101 0.025145 0.025183 0.025216 0.025243 0.025264 0.025280 0.025289 0.025292 0.053535 0.053510 0.053438 0.053316 0.053149 0.052933 0.052672 0.052365 0.052015 0.051624 0.051193 0.050726 0.050226 0.049699 0.049149 0.048584 0.048012 0.047443 0.046890 0.046364 0.045881 0.045457 0.045107 0.044845 0.044683 0.044628 0.044647 0.044701 0.044790 0.044912 0.045063 0.045240 0.045439 0.045655 0.045884 0.046121 0.046363 0.046605 0.046843 0.047074 0.047295 0.047502 0.047694 0.047868 0.048023 0.048156 0.048267 0.048354 0.048417 0.048455 0.048467 0.097332 0.097261 0.097052 0.096702 0.096218 0.095598 0.094847 0.093970 0.092973 0.091863 0.090647 0.089337 0.087944 0.086483 0.084971 0.083429 0.081880 0.080352 0.078875 0.077485 0.076217 0.075111 0.074204 0.073528 0.073110 0.072969 0.073016 0.073156 0.073386 0.073700 0.074090 0.074548 0.075064 0.075626 0.076224 0.076847 0.077482 0.078121 0.078752 0.079365 0.079954 0.080509 0.081024 0.081492 0.081909 0.082269 0.082568 0.082804 0.082975 0.083078 0.083112 0.166999 0.166829 0.166324 0.165485 0.164320 0.162836 0.161044 0.158959 0.156599 0.153982 0.151134 0.148083 0.144861 0.141505 0.138060 0.134572 0.131099 0.127701 0.124446 0.121406 0.118656 0.116273 0.114330 0.112890 0.112004 0.111705 0.111805 0.112102 0.112589 0.113256 0.114088 0.115067 0.116171 0.117380 0.118671 0.120019 0.121400 0.122793 0.124174 0.125523 0.126821 0.128049 0.129191 0.130233 0.131163 0.131968 0.132638 0.133168 0.133551 0.133782 0.133859 0.274649 0.274286 0.273204 0.271408 0.268920 0.265759 0.261955 0.257545 0.252577 0.247098 0.241170 0.234859 0.228242 0.221402 0.214434 0.207442 0.200538 0.193842 0.187484 0.181597 0.176314 0.171771 0.168088 0.165373 0.163708 0.163147 0.163334 0.163891 0.164807 0.166063 0.167631 0.169482 0.171577 0.173878 0.176343 0.178927 0.181586 0.184277 0.186956 0.189582 0.192118 0.194526 0.196772 0.198827 0.200665 0.202259 0.203590 0.204644 0.205405 0.205866 0.206020 0.433763 0.433056 0.430944 0.427447 0.422610 0.416483 0.409134 0.400650 0.391135 0.380697 0.369472 0.357599 0.345237 0.332558 0.319746 0.306994 0.294513 0.282515 0.271220 0.260848 0.251617 0.243732 0.237381 0.232722 0.229875 0.228917 0.229237 0.230188 0.231754 0.233904 0.236596 0.239781 0.243398 0.247383 0.251666 0.256174 0.260829 0.265559 0.270285 0.274936 0.279441 0.283735 0.287752 0.291437 0.294741 0.297614 0.300018 0.301923 0.303301 0.304137 0.304415 0.654146 0.652888 0.649129 0.642914 0.634331 0.623489 0.610528 0.595623 0.578977 0.560812 0.541386 0.520965 0.499844 0.478337 0.456766 0.435467 0.414786 0.395065 0.376649 0.359870 0.345044 0.332464 0.322388 0.315028 0.310545 0.309039 0.309541 0.311038 0.313503 0.316893 0.321145 0.326188 0.331932 0.338279 0.345123 0.352349 0.359840 0.367475 0.375133 0.382693 0.390040 0.397063 0.403654 0.409715 0.415161 0.419907 0.423886 0.427043 0.429330 0.430717 0.431180 0.933417 0.931385 0.925319 0.915301 0.901486 0.884075 0.863317 0.839524 0.813052 0.784287 0.753670 0.721654 0.688726 0.655397 0.622180 0.589597 0.558170 0.528407 0.500798 0.475804 0.453852 0.435329 0.420559 0.409812 0.403283 0.401093 0.401823 0.404000 0.407590 0.412532 0.418743 0.426122 0.434547 0.443879 0.453969 0.464653 0.475759 0.487113 0.498532 0.509838 0.520854 0.531413 0.541344 0.550498 0.558739 0.565933 0.571973 0.576771 0.580250 0.582360 0.583065 1.249999 1.247044 1.238222 1.223667 1.203614 1.178384 1.148362 1.114031 1.075933 1.034662 0.990881 0.945268 0.898545 0.851453 0.804732 0.759118 0.715332 0.674065 0.635967 0.601637 0.571618 0.546385 0.526334 0.511781 0.502957 0.500000 0.500986 0.503927 0.508777 0.515461 0.523872 0.533879 0.545322 0.558021 0.571778 0.586373 0.601577 0.617152 0.632849 0.648422 0.663625 0.678223 0.691978 0.704676 0.716122 0.726127 0.734537 0.741222 0.746072 0.749015 0.749999 1.566581 1.562703 1.551124 1.532032 1.505742 1.472693 1.433407 1.388538 1.338813 1.285037 1.228091 1.168883 1.108364 1.047510 0.987284 0.928638 0.872494 0.819722 0.771136 0.727471 0.689384 0.657441 0.632108 0.613751 0.602631 0.598907 0.600148 0.603853 0.609964 0.618391 0.629001 0.641636 0.656097 0.672163 0.689586 0.708093 0.727395 0.747191 0.767165 0.787006 0.806396 0.825033 0.842612 0.858854 0.873505 0.886322 0.897101 0.905673 0.911895 0.915671 0.916934 1.845852 1.841200 1.827313 1.804419 1.772897 1.733278 1.686197 1.632441 1.572889 1.508514 1.440376 1.369572 1.297246 1.224570 1.152698 1.082769 1.015879 0.953064 0.895284 0.843405 0.798193 0.760306 0.730280 0.708535 0.695369 0.690961 0.692430 0.696815 0.704052 0.714030 0.726599 0.741570 0.758712 0.777763 0.798432 0.820397 0.843314 0.866828 0.890565 0.914151 0.937212 0.959383 0.980303 0.999638 1.017082 1.032347 1.045188 1.055401 1.062814 1.067313 1.068819 2.066235 2.061031 2.045496 2.019886 1.984618 1.940283 1.887591 1.827414 1.760732 1.688631 1.612290 1.532937 1.451854 1.370349 1.289718 1.211242 1.136152 1.065614 1.000713 0.942427 0.891620 0.849038 0.815286 0.790841 0.776039 0.771083 0.772734 0.777665 0.785800 0.797019 0.811149 0.827977 0.847246 0.868660 0.891889 0.916573 0.942325 0.968744 0.995412 1.021908 1.047811 1.072711 1.096205 1.117916 1.137502 1.154641 1.169057 1.180521 1.188843 1.193893 1.195583 2.225350 2.219801 2.203236 2.175925 2.138309 2.091007 2.034771 1.970520 1.899291 1.822232 1.740592 1.655677 1.568850 1.481505 1.395030 1.310795 1.230127 1.154287 1.084449 1.021678 0.966923 0.920999 0.884580 0.858190 0.842206 0.836853 0.838637 0.843962 0.852748 0.864860 0.880114 0.898276 0.919067 0.942164 0.967212 0.993819 1.021568 1.050026 1.078742 1.107262 1.135135 1.161920 1.187185 1.210527 1.231578 1.249996 1.265486 1.277801 1.286740 1.292163 1.293979 2.333000 2.327257 2.310115 2.281848 2.242909 2.193928 2.135682 2.069108 1.995270 1.915350 1.830628 1.742453 1.652231 1.561402 1.471404 1.383665 1.299566 1.220429 1.147487 1.081869 1.024581 0.976497 0.938338 0.910673 0.893910 0.888295 0.890166 0.895752 0.904966 0.917667 0.933657 0.952691 0.974473 0.998662 1.024884 1.052727 1.081754 1.111510 1.141523 1.171322 1.200432 1.228396 1.254765 1.279121 1.301080 1.320287 1.336438 1.349276 1.358595 1.364247 1.366140 2.402667 2.396825 2.379387 2.350630 2.311012 2.261166 2.201879 2.134097 2.058896 1.977470 1.891115 1.801199 1.709148 1.616424 1.524493 1.434808 1.348785 1.267778 1.193057 1.125789 1.067020 1.017659 0.978464 0.950035 0.932804 0.927031 0.928955 0.934697 0.944169 0.957223 0.973655 0.993209 1.015580 1.040417 1.067331 1.095899 1.125672 1.156182 1.186946 1.217480 1.247300 1.275936 1.302933 1.327863 1.350334 1.369986 1.386508 1.399640 1.409171 1.414951 1.416888 2.446465 2.440577 2.423001 2.394016 2.354081 2.303830 2.244055 2.175703 2.099854 2.017710 1.930570 1.839810 1.746866 1.653209 1.560315 1.469653 1.382653 1.300687 1.225043 1.156910 1.097356 1.047313 1.007560 0.978717 0.961231 0.955372 0.957325 0.963153 0.972765 0.986011 1.002682 1.022517 1.045205 1.070388 1.097671 1.126625 1.156792 1.187698 1.218855 1.249771 1.279959 1.308943 1.336263 1.361487 1.384220 1.404098 1.420810 1.434090 1.443729 1.449574 1.451532 2.473500 2.467592 2.449961 2.420884 2.380820 2.330404 2.270428 2.201841 2.125725 2.043282 1.955812 1.864697 1.771373 1.677315 1.584005 1.492916 1.405485 1.323091 1.247031 1.178505 1.118591 1.068231 1.028219 0.999181 0.981574 0.975675 0.977641 0.983510 0.993188 1.006525 1.023308 1.043275 1.066110 1.091454 1.118908 1.148038 1.178386 1.209473 1.240808 1.271898 1.302252 1.331391 1.358855 1.384211 1.407059 1.427039 1.443834 1.457180 1.466866 1.472740 1.474708 2.490000 2.484086 2.466438 2.437333 2.397230 2.346763 2.286726 2.218068 2.141870 2.059335 1.971763 1.880536 1.787093 1.692907 1.599464 1.508237 1.420665 1.338130 1.261932 1.193274 1.133237 1.082770 1.042668 1.013563 0.995914 0.990000 0.991971 0.997854 1.007556 1.020923 1.037746 1.057758 1.080644 1.106043 1.133555 1.162746 1.193155 1.224302 1.255697 1.286845 1.317254 1.346445 1.373957 1.399356 1.422242 1.442254 1.459077 1.472444 1.482146 1.488029 1.490000 2.500000 2.494086 2.476438 2.447332 2.407230 2.356763 2.296726 2.228068 2.151870 2.069335 1.981763 1.890536 1.797093 1.702907 1.609464 1.518237 1.430665 1.348130 1.271932 1.203274 1.143237 1.092770 1.052668 1.023563 1.005914 1.000000 1.001971 1.007854 1.017556 1.030923 1.047746 1.067758 1.090644 1.116043 1.143555 1.172746 1.203155 1.234302 1.265698 1.296845 1.327254 1.356445 1.383957 1.409356 1.432242 1.452254 1.469077 1.482444 1.492146 1.498029 1.500000 
1.072480 1.072834 1.073013 1.072904 1.072434 1.071533 1.070127 1.068129 1.065440 1.061939 1.057485 1.051908 1.045008 1.036548 1.026250 1.013798 0.998838 0.980990 0.959869 0.935118 0.906453 0.873719 0.836924 0.796208 0.751395 0.693338 0.647505 0.617906 0.589927 0.563137 0.537427 0.512777 0.489217 0.466794 0.445560 0.425554 0.406802 0.389312 0.373078 0.409047 0.775025 0.779910 0.786347 0.793882 0.800845 0.806935 0.812149 0.816555 0.820240 0.823310 1.072475 1.072813 1.072971 1.072840 1.072346 1.071420 1.069987 1.067963 1.065246 1.061718 1.057238 1.051636 1.044711 1.036228 1.025909 1.013441 0.998468 0.980614 0.959494 0.934752 0.906107 0.873403 0.836650 0.795987 0.751234 0.693249 0.647462 0.617900 0.589950 0.563185 0.537498 0.512869 0.489326 0.466918 0.445696 0.425700 0.406954 0.389468 0.373236 0.408954 0.774784 0.779878 0.786362 0.793894 0.800843 0.806911 0.812097 0.816462 0.820088 0.823078 1.072463 1.072777 1.072904 1.072737 1.072205 1.071239 1.069767 1.067702 1.064944 1.061377 1.056857 1.051218 1.044259 1.035745 1.025400 1.012910 0.997923 0.980062 0.958946 0.934220 0.905602 0.872940 0.836243 0.795647 0.750971 0.693086 0.647371 0.617865 0.589955 0.563226 0.537571 0.512971 0.489454 0.467069 0.445866 0.425886 0.407152 0.389675 0.373449 0.409235 0.774276 0.779758 0.786355 0.793876 0.800783 0.806786 0.811876 0.816110 0.819563 0.822339 1.072437 1.072716 1.072796 1.072575 1.071987 1.070963 1.069431 1.067307 1.064491 1.060867 1.056294 1.050605 1.043600 1.035045 1.024667 1.012151 0.997147 0.979282 0.958173 0.933468 0.904888 0.872278 0.835647 0.795132 0.750543 0.692791 0.647195 0.617769 0.589914 0.563235 0.537625 0.513065 0.489585 0.467233 0.446060 0.426106 0.407396 0.389937 0.373725 0.410397 0.773181 0.779270 0.786082 0.793529 0.800246 0.805959 0.810684 0.814524 0.817611 0.820087 1.072390 1.072622 1.072633 1.072337 1.071668 1.070563 1.068948 1.066743 1.063849 1.060150 1.055506 1.049751 1.042688 1.034082 1.023662 1.011115 0.996093 0.978222 0.957122 0.932442 0.903901 0.871346 0.834785 0.794352 0.749847 0.692251 0.646862 0.617548 0.589767 0.563155 0.537603 0.513097 0.489667 0.467363 0.446236 0.426325 0.407653 0.390230 0.374049 0.413533 0.769349 0.776088 0.782992 0.790181 0.796668 0.802262 0.806990 0.810934 0.814197 0.816897 1.072322 1.072496 1.072420 1.072025 1.071252 1.070041 1.068322 1.066013 1.063019 1.059224 1.054491 1.048655 1.041518 1.032850 1.022378 1.009791 0.994743 0.976858 0.955759 0.931092 0.902578 0.870063 0.833552 0.793178 0.748722 0.691279 0.646261 0.617090 0.589407 0.562878 0.537400 0.512961 0.489596 0.467356 0.446293 0.426447 0.407839 0.390479 0.374357 0.421472 0.762756 0.772013 0.779847 0.787355 0.794006 0.799715 0.804538 0.808567 0.811910 0.814693 1.072288 1.072399 1.072224 1.071716 1.070824 1.069490 1.067647 1.065216 1.062102 1.058194 1.053353 1.047417 1.040189 1.031439 1.020896 1.008250 0.993151 0.975228 0.954098 0.929408 0.900877 0.868348 0.831827 0.791442 0.746947 0.689586 0.645224 0.616221 0.588660 0.562232 0.536837 0.512474 0.489183 0.467023 0.446046 0.426292 0.407782 0.390523 0.374507 0.434937 0.757620 0.769581 0.778346 0.786088 0.792777 0.798463 0.803241 0.807217 0.810502 0.813217 1.072464 1.072517 1.072251 1.071633 1.070620 1.069158 1.067184 1.064621 1.061375 1.057335 1.052367 1.046307 1.038962 1.030099 1.019448 1.006698 0.991500 0.973476 0.952245 0.927448 0.898803 0.866149 0.829492 0.788961 0.744260 0.686795 0.643546 0.614714 0.587299 0.560981 0.535669 0.511379 0.488164 0.466092 0.445219 0.425585 0.407214 0.390108 0.374260 0.453674 0.753374 0.767720 0.777420 0.785416 0.792127 0.797755 0.802444 0.806313 0.809473 0.812040 1.073179 1.073193 1.072860 1.072156 1.071040 1.069464 1.067365 1.064669 1.061285 1.057101 1.051984 1.045771 1.038268 1.029243 1.018423 1.005495 0.990106 0.971877 0.950419 0.925371 0.896445 0.863480 0.826483 0.785580 0.740412 0.682531 0.641013 0.612341 0.585085 0.558870 0.533622 0.509383 0.486231 0.464245 0.443488 0.424004 0.405816 0.388927 0.373327 0.476770 0.750415 0.766383 0.776822 0.785031 0.791752 0.797310 0.801889 0.805620 0.808611 0.810973 1.074785 1.074791 1.074435 1.073686 1.072505 1.070843 1.068641 1.065825 1.062304 1.057969 1.052684 1.046285 1.038576 1.029324 1.018250 1.005039 0.989332 0.970744 0.948883 0.923382 0.893950 0.860424 0.822807 0.781234 0.735237 0.676583 0.637472 0.608961 0.581866 0.555729 0.530507 0.506282 0.483163 0.461248 0.440613 0.421307 0.403355 0.386758 0.371504 0.502022 0.749174 0.765833 0.776649 0.784955 0.791649 0.797124 0.801584 0.805157 0.807946 0.810046 1.077340 1.077381 1.077053 1.076311 1.075114 1.073413 1.071148 1.068248 1.064620 1.060153 1.054708 1.048118 1.040183 1.030661 1.019270 1.005685 0.989539 0.970440 0.947985 0.921803 0.891598 0.857211 0.818662 0.776072 0.728802 0.669160 0.632965 0.604673 0.577726 0.551622 0.526373 0.502117 0.479002 0.457151 0.436650 0.417557 0.399897 0.383676 0.368883 0.527022 0.749610 0.766124 0.776909 0.785170 0.791808 0.797209 0.801564 0.804987 0.807560 0.809357 1.080429 1.080555 1.080314 1.079640 1.078489 1.076813 1.074553 1.071635 1.067963 1.063421 1.057867 1.051124 1.042983 1.033194 1.021464 1.007454 0.990787 0.971057 0.947852 0.920792 0.889578 0.854054 0.814251 0.770328 0.721309 0.660849 0.627698 0.599751 0.572932 0.546803 0.521473 0.497150 0.474025 0.452244 0.431909 0.413081 0.395789 0.380040 0.365819 0.550125 0.751311 0.767012 0.777417 0.785518 0.792094 0.797452 0.801742 0.805048 0.807422 0.808905 1.083399 1.083671 1.083574 1.083022 1.081975 1.080389 1.078203 1.075340 1.071701 1.067164 1.061575 1.054752 1.046471 1.036468 1.024436 1.010018 0.992820 0.972420 0.948389 0.920339 0.887964 0.851115 0.809842 0.764344 0.713138 0.652494 0.622066 0.594610 0.567892 0.541686 0.516237 0.491834 0.468709 0.447030 0.426907 0.408406 0.391558 0.376367 0.362817 0.570256 0.753893 0.768257 0.778061 0.785963 0.792501 0.797863 0.802138 0.805379 0.807598 0.808782 1.085740 1.086221 1.086303 1.085903 1.084995 1.083539 1.081475 1.078724 1.075181 1.070716 1.065169 1.058344 1.050005 1.039873 1.027619 1.012868 0.995203 0.974181 0.949352 0.920312 0.886749 0.848519 0.805694 0.758519 0.704659 0.645017 0.616543 0.589663 0.563010 0.536689 0.511116 0.486653 0.463565 0.442032 0.422171 0.404050 0.387698 0.373114 0.360279 0.586931 0.756922 0.769541 0.778681 0.786419 0.792962 0.798369 0.802679 0.805911 0.808040 0.808988 1.087296 1.088040 1.088298 1.088047 1.087281 1.085965 1.084041 1.081424 1.078008 1.073655 1.068198 1.061430 1.053103 1.042921 1.030537 1.015553 0.997527 0.975990 0.950468 0.920538 0.885874 0.846338 0.802022 0.753233 0.696752 0.638590 0.611624 0.585296 0.558655 0.532204 0.506525 0.482037 0.459025 0.437677 0.418109 0.400387 0.384536 0.370549 0.358400 0.600114 0.760034 0.770668 0.779225 0.786870 0.793454 0.798928 0.803301 0.806565 0.808669 0.809467 1.088196 1.089221 1.089625 1.089497 1.088854 1.087664 1.085868 1.083380 1.080089 1.075856 1.070506 1.063823 1.055549 1.045374 1.032933 1.017807 0.999530 0.977605 0.951533 0.920867 0.885266 0.844590 0.798953 0.748723 0.690066 0.633201 0.607611 0.581716 0.555032 0.528458 0.502705 0.478227 0.455318 0.434168 0.414890 0.397546 0.382154 0.368698 0.357146 0.610126 0.762905 0.771534 0.779671 0.787291 0.793928 0.799470 0.803909 0.807225 0.809350 0.810087 1.088664 1.089950 1.090459 1.090422 1.089872 1.088781 1.087087 1.084706 1.081522 1.077395 1.072144 1.065549 1.057343 1.047204 1.034753 1.019553 1.001114 0.978917 0.952436 0.921200 0.884852 0.843247 0.796513 0.745074 0.684756 0.628868 0.604545 0.578929 0.552170 0.525495 0.499699 0.475255 0.452458 0.431496 0.412479 0.395463 0.380457 0.367435 0.356362 0.617468 0.765317 0.772122 0.780011 0.787644 0.794332 0.799930 0.804424 0.807792 0.809957 0.810696 1.088892 1.090390 1.090967 1.090992 1.090508 1.089487 1.087869 1.085567 1.082466 1.078422 1.073253 1.066735 1.058593 1.048498 1.036060 1.020827 1.002292 0.979914 0.953143 0.921488 0.884574 0.842250 0.794652 0.742248 0.680728 0.625518 0.602305 0.576836 0.549997 0.523248 0.497434 0.473033 0.450342 0.429543 0.410743 0.393990 0.379287 0.366600 0.355888 0.622705 0.767197 0.772487 0.780258 0.787918 0.794645 0.800283 0.804817 0.808226 0.810433 0.811205 1.089000 1.090654 1.091273 1.091338 1.090897 1.089925 1.088357 1.086111 1.083069 1.079087 1.073979 1.067520 1.059432 1.049378 1.036962 1.021719 1.003128 0.980634 0.953665 0.921713 0.884385 0.841526 0.793277 0.740131 0.677771 0.623008 0.600716 0.575304 0.548394 0.521596 0.495779 0.471422 0.448822 0.428155 0.409524 0.392972 0.378496 0.366055 0.355605 0.626363 0.768586 0.772705 0.780435 0.788123 0.794878 0.800542 0.805104 0.808543 0.810783 0.811593 1.089051 1.090812 1.091456 1.091546 1.091134 1.090192 1.088659 1.086450 1.083448 1.079507 1.074443 1.068027 1.059979 1.049959 1.037563 1.022321 1.003701 0.981132 0.954031 0.921874 0.884254 0.841008 0.792281 0.738586 0.675648 0.621173 0.599608 0.574202 0.547238 0.520408 0.494597 0.470279 0.447751 0.427186 0.408682 0.392278 0.377966 0.365700 0.355433 0.628888 0.769580 0.772840 0.780567 0.788276 0.795050 0.800732 0.805311 0.808768 0.811032 0.811873 