TITLE = "vncfd field"
VARIABLES = "X", "Y", "rho", "u", "v", "p", "Mach", "T"
ZONE T="1", I=501, J=2, DATAPACKING=BLOCK, VARLOCATION=([3,4,5,6,7,8]=CELLCENTERED)
0.000000 0.002000 0.004000 0.006000 0.008000 0.010000 0.012000 0.014000 0.016000 0.018000 0.020000 0.022000 0.024000 0.026000 0.028000 0.030000 0.032000 0.034000 0.036000 0.038000 0.040000 0.042000 0.044000 0.046000 0.048000 0.050000 0.052000 0.054000 0.056000 0.058000 0.060000 0.062000 0.064000 0.066000 0.068000 0.070000 0.072000 0.074000 0.076000 0.078000 0.080000 0.082000 0.084000 0.086000 0.088000 0.090000 0.092000 0.094000 0.096000 0.098000 0.100000 0.102000 0.104000 0.106000 0.108000 0.110000 0.112000 0.114000 0.116000 0.118000 0.120000 0.122000 0.124000 0.126000 0.128000 0.130000 0.132000 0.134000 0.136000 0.138000 0.140000 0.142000 0.144000 0.146000 0.148000 0.150000 0.152000 0.154000 0.156000 0.158000 0.160000 0.162000 0.164000 0.166000 0.168000 0.170000 0.172000 0.174000 0.176000 0.178000 0.180000 0.182000 0.184000 0.186000 0.188000 0.190000 0.192000 0.194000 0.196000 0.198000 0.200000 0.202000 0.204000 0.206000 0.208000 0.210000 0.212000 0.214000 0.216000 0.218000 0.220000 0.222000 0.224000 0.226000 0.228000 0.230000 0.232000 0.234000 0.236000 0.238000 0.240000 0.242000 0.244000 0.246000 0.248000 0.250000 0.252000 0.254000 0.256000 0.258000 0.260000 0.262000 0.264000 0.266000 0.268000 0.270000 0.272000 0.274000 0.276000 0.278000 0.280000 0.282000 0.284000 0.286000 0.288000 0.290000 0.292000 0.294000 0.296000 0.298000 0.300000 0.302000 0.304000 0.306000 0.308000 0.310000 0.312000 0.314000 0.316000 0.318000 0.320000 0.322000 0.324000 0.326000 0.328000 0.330000 0.332000 0.334000 0.336000 0.338000 0.340000 0.342000 0.344000 0.346000 0.348000 0.350000 0.352000 0.354000 0.356000 0.358000 0.360000 0.362000 0.364000 0.366000 0.368000 0.370000 0.372000 0.374000 0.376000 0.378000 0.380000 0.382000 0.384000 0.386000 0.388000 0.390000 0.392000 0.394000 0.396000 0.398000 0.400000 0.402000 0.404000 0.406000 0.408000 0.410000 0.412000 0.414000 0.416000 0.418000 0.420000 0.422000 0.424000 0.426000 0.428000 0.430000 0.432000 0.434000 0.436000 0.438000 0.440000 0.442000 0.444000 0.446000 0.448000 0.450000 0.452000 0.454000 0.456000 0.458000 0.460000 0.462000 0.464000 0.466000 0.468000 0.470000 0.472000 0.474000 0.476000 0.478000 0.480000 0.482000 0.484000 0.486000 0.488000 0.490000 0.492000 0.494000 0.496000 0.498000 0.500000 0.502000 0.504000 0.506000 0.508000 0.510000 0.512000 0.514000 0.516000 0.518000 0.520000 0.522000 0.524000 0.526000 0.528000 0.530000 0.532000 0.534000 0.536000 0.538000 0.540000 0.542000 0.544000 0.546000 0.548000 0.550000 0.552000 0.554000 0.556000 0.558000 0.560000 0.562000 0.564000 0.566000 0.568000 0.570000 0.572000 0.574000 0.576000 0.578000 0.580000 0.582000 0.584000 0.586000 0.588000 0.590000 0.592000 0.594000 0.596000 0.598000 0.600000 0.602000 0.604000 0.606000 0.608000 0.610000 0.612000 0.614000 0.616000 0.618000 0.620000 0.622000 0.624000 0.626000 0.628000 0.630000 0.632000 0.634000 0.636000 0.638000 0.640000 0.642000 0.644000 0.646000 0.648000 0.650000 0.652000 0.654000 0.656000 0.658000 0.660000 0.662000 0.664000 0.666000 0.668000 0.670000 0.672000 0.674000 0.676000 0.678000 0.680000 0.682000 0.684000 0.686000 0.688000 0.690000 0.692000 0.694000 0.696000 0.698000 0.700000 0.702000 0.704000 0.706000 0.708000 0.710000 0.712000 0.714000 0.716000 0.718000 0.720000 0.722000 0.724000 0.726000 0.728000 0.730000 0.732000 0.734000 0.736000 0.738000 0.740000 0.742000 0.744000 0.746000 0.748000 0.750000 0.752000 0.754000 0.756000 0.758000 0.760000 0.762000 0.764000 0.766000 0.768000 0.770000 0.772000 0.774000 0.776000 0.778000 0.780000 0.782000 0.784000 0.786000 0.788000 0.790000 0.792000 0.794000 0.796000 0.798000 0.800000 0.802000 0.804000 0.806000 0.808000 0.810000 0.812000 0.814000 0.816000 0.818000 0.820000 0.822000 0.824000 0.826000 0.828000 0.830000 0.832000 0.834000 0.836000 0.838000 0.840000 0.842000 0.844000 0.846000 0.848000 0.850000 0.852000 0.854000 0.856000 0.858000 0.860000 0.862000 0.864000 0.866000 0.868000 0.870000 0.872000 0.874000 0.876000 0.878000 0.880000 0.882000 0.884000 0.886000 0.888000 0.890000 0.892000 0.894000 0.896000 0.898000 0.900000 0.902000 0.904000 0.906000 0.908000 0.910000 0.912000 0.914000 0.916000 0.918000 0.920000 0.922000 0.924000 0.926000 0.928000 0.930000 0.932000 0.934000 0.936000 0.938000 0.940000 0.942000 0.944000 0.946000 0.948000 0.950000 0.952000 0.954000 0.956000 0.958000 0.960000 0.962000 0.964000 0.966000 0.968000 0.970000 0.972000 0.974000 0.976000 0.978000 0.980000 0.982000 0.984000 0.986000 0.988000 0.990000 0.992000 0.994000 0.996000 0.998000 1.000000 0.000000 0.002000 0.004000 0.006000 0.008000 0.010000 0.012000 0.014000 0.016000 0.018000 0.020000 0.022000 0.024000 0.026000 0.028000 0.030000 0.032000 0.034000 0.036000 0.038000 0.040000 0.042000 0.044000 0.046000 0.048000 0.050000 0.052000 0.054000 0.056000 0.058000 0.060000 0.062000 0.064000 0.066000 0.068000 0.070000 0.072000 0.074000 0.076000 0.078000 0.080000 0.082000 0.084000 0.086000 0.088000 0.090000 0.092000 0.094000 0.096000 0.098000 0.100000 0.102000 0.104000 0.106000 0.108000 0.110000 0.112000 0.114000 0.116000 0.118000 0.120000 0.122000 0.124000 0.126000 0.128000 0.130000 0.132000 0.134000 0.136000 0.138000 0.140000 0.142000 0.144000 0.146000 0.148000 0.150000 0.152000 0.154000 0.156000 0.158000 0.160000 0.162000 0.164000 0.166000 0.168000 0.170000 0.172000 0.174000 0.176000 0.178000 0.180000 0.182000 0.184000 0.186000 0.188000 0.190000 0.192000 0.194000 0.196000 0.198000 0.200000 0.202000 0.204000 0.206000 0.208000 0.210000 0.212000 0.214000 0.216000 0.218000 0.220000 0.222000 0.224000 0.226000 0.228000 0.230000 0.232000 0.234000 0.236000 0.238000 0.240000 0.242000 0.244000 0.246000 0.248000 0.250000 0.252000 0.254000 0.256000 0.258000 0.260000 0.262000 0.264000 0.266000 0.268000 0.270000 0.272000 0.274000 0.276000 0.278000 0.280000 0.282000 0.284000 0.286000 0.288000 0.290000 0.292000 0.294000 0.296000 0.298000 0.300000 0.302000 0.304000 0.306000 0.308000 0.310000 0.312000 0.314000 0.316000 0.318000 0.320000 0.322000 0.324000 0.326000 0.328000 0.330000 0.332000 0.334000 0.336000 0.338000 0.340000 0.342000 0.344000 0.346000 0.348000 0.350000 0.352000 0.354000 0.356000 0.358000 0.360000 0.362000 0.364000 0.366000 0.368000 0.370000 0.372000 0.374000 0.376000 0.378000 0.380000 0.382000 0.384000 0.386000 0.388000 0.390000 0.392000 0.394000 0.396000 0.398000 0.400000 0.402000 0.404000 0.406000 0.408000 0.410000 0.412000 0.414000 0.416000 0.418000 0.420000 0.422000 0.424000 0.426000 0.428000 0.430000 0.432000 0.434000 0.436000 0.438000 0.440000 0.442000 0.444000 0.446000 0.448000 0.450000 0.452000 0.454000 0.456000 0.458000 0.460000 0.462000 0.464000 0.466000 0.468000 0.470000 0.472000 0.474000 0.476000 0.478000 0.480000 0.482000 0.484000 0.486000 0.488000 0.490000 0.492000 0.494000 0.496000 0.498000 0.500000 0.502000 0.504000 0.506000 0.508000 0.510000 0.512000 0.514000 0.516000 0.518000 0.520000 0.522000 0.524000 0.526000 0.528000 0.530000 0.532000 0.534000 0.536000 0.538000 0.540000 0.542000 0.544000 0.546000 0.548000 0.550000 0.552000 0.554000 0.556000 0.558000 0.560000 0.562000 0.564000 0.566000 0.568000 0.570000 0.572000 0.574000 0.576000 0.578000 0.580000 0.582000 0.584000 0.586000 0.588000 0.590000 0.592000 0.594000 0.596000 0.598000 0.600000 0.602000 0.604000 0.606000 0.608000 0.610000 0.612000 0.614000 0.616000 0.618000 0.620000 0.622000 0.624000 0.626000 0.628000 0.630000 0.632000 0.634000 0.636000 0.638000 0.640000 0.642000 0.644000 0.646000 0.648000 0.650000 0.652000 0.654000 0.656000 0.658000 0.660000 0.662000 0.664000 0.666000 0.668000 0.670000 0.672000 0.674000 0.676000 0.678000 0.680000 0.682000 0.684000 0.686000 0.688000 0.690000 0.692000 0.694000 0.696000 0.698000 0.700000 0.702000 0.704000 0.706000 0.708000 0.710000 0.712000 0.714000 0.716000 0.718000 0.720000 0.722000 0.724000 0.726000 0.728000 0.730000 0.732000 0.734000 0.736000 0.738000 0.740000 0.742000 0.744000 0.746000 0.748000 0.750000 0.752000 0.754000 0.756000 0.758000 0.760000 0.762000 0.764000 0.766000 0.768000 0.770000 0.772000 0.774000 0.776000 0.778000 0.780000 0.782000 0.784000 0.786000 0.788000 0.790000 0.792000 0.794000 0.796000 0.798000 0.800000 0.802000 0.804000 0.806000 0.808000 0.810000 0.812000 0.814000 0.816000 0.818000 0.820000 0.822000 0.824000 0.826000 0.828000 0.830000 0.832000 0.834000 0.836000 0.838000 0.840000 0.842000 0.844000 0.846000 0.848000 0.850000 0.852000 0.854000 0.856000 0.858000 0.860000 0.862000 0.864000 0.866000 0.868000 0.870000 0.872000 0.874000 0.876000 0.878000 0.880000 0.882000 0.884000 0.886000 0.888000 0.890000 0.892000 0.894000 0.896000 0.898000 0.900000 0.902000 0.904000 0.906000 0.908000 0.910000 0.912000 0.914000 0.916000 0.918000 0.920000 0.922000 0.924000 0.926000 0.928000 0.930000 0.932000 0.934000 0.936000 0.938000 0.940000 0.942000 0.944000 0.946000 0.948000 0.950000 0.952000 0.954000 0.956000 0.958000 0.960000 0.962000 0.964000 0.966000 0.968000 0.970000 0.972000 0.974000 0.976000 0.978000 0.980000 0.982000 0.984000 0.986000 0.988000 0.990000 0.992000 0.994000 0.996000 0.998000 1.000000 
0.000000 0.000000 0.000000 0.000000 0.000000 0.000000 0.000000 0.000000 0.000000 0.000000 0.000000 0.000000 0.000000 0.000000 0.000000 0.000000 0.000000 0.000000 0.000000 0.000000 0.000000 0.000000 0.000000 0.000000 0.000000 0.000000 0.000000 0.000000 0.000000 0.000000 0.000000 0.000000 0.000000 0.000000 0.000000 0.000000 0.000000 0.000000 0.000000 0.000000 0.000000 0.000000 0.000000 0.000000 0.000000 0.000000 0.000000 0.000000 0.000000 0.000000 0.000000 0.000000 0.000000 0.000000 0.000000 0.000000 0.000000 0.000000 0.000000 0.000000 0.000000 0.000000 0.000000 0.000000 0.000000 0.000000 0.000000 0.000000 0.000000 0.000000 0.000000 0.000000 0.000000 0.000000 0.000000 0.000000 0.000000 0.000000 0.000000 0.000000 0.000000 0.000000 0.000000 0.000000 0.000000 0.000000 0.000000 0.000000 0.000000 0.000000 0.000000 0.000000 0.000000 0.000000 0.000000 0.000000 0.000000 0.000000 0.000000 0.000000 0.000000 0.000000 0.000000 0.000000 0.000000 0.000000 0.000000 0.000000 0.000000 0.000000 0.000000 0.000000 0.000000 0.000000 0.000000 0.000000 0.000000 0.000000 0.000000 0.000000 0.000000 0.000000 0.000000 0.000000 0.000000 0.000000 0.000000 0.000000 0.000000 0.000000 0.000000 0.000000 0.000000 0.000000 0.000000 0.000000 0.000000 0.000000 0.000000 0.000000 0.000000 0.000000 0.000000 0.000000 0.000000 0.000000 0.000000 0.000000 0.000000 0.000000 0.000000 0.000000 0.000000 0.000000 0.000000 0.000000 0.000000 0.000000 0.000000 0.000000 0.000000 0.000000 0.000000 0.000000 0.000000 0.000000 0.000000 0.000000 0.000000 0.000000 0.000000 0.000000 0.000000 0.000000 0.000000 0.000000 0.000000 0.000000 0.000000 0.000000 0.000000 0.000000 0.000000 0.000000 0.000000 0.000000 0.000000 0.000000 0.000000 0.000000 0.000000 0.000000 0.000000 0.000000 0.000000 0.000000 0.000000 0.000000 0.000000 0.000000 0.000000 0.000000 0.000000 0.000000 0.000000 0.000000 0.000000 0.000000 0.000000 0.000000 0.000000 0.000000 0.000000 0.000000 0.000000 0.000000 0.000000 0.000000 0.000000 0.000000 0.000000 0.000000 0.000000 0.000000 0.000000 0.000000 0.000000 0.000000 0.000000 0.000000 0.000000 0.000000 0.000000 0.000000 0.000000 0.000000 0.000000 0.000000 0.000000 0.000000 0.000000 0.000000 0.000000 0.000000 0.000000 0.000000 0.000000 0.000000 0.000000 0.000000 0.000000 0.000000 0.000000 0.000000 0.000000 0.000000 0.000000 0.000000 0.000000 0.000000 0.000000 0.000000 0.000000 0.000000 0.000000 0.000000 0.000000 0.000000 0.000000 0.000000 0.000000 0.000000 0.000000 0.000000 0.000000 0.000000 0.000000 0.000000 0.000000 0.000000 0.000000 0.000000 0.000000 0.000000 0.000000 0.000000 0.000000 0.000000 0.000000 0.000000 0.000000 0.000000 0.000000 0.000000 0.000000 0.000000 0.000000 0.000000 0.000000 0.000000 0.000000 0.000000 0.000000 0.000000 0.000000 0.000000 0.000000 0.000000 0.000000 0.000000 0.000000 0.000000 0.000000 0.000000 0.000000 0.000000 0.000000 0.000000 0.000000 0.000000 0.000000 0.000000 0.000000 0.000000 0.000000 0.000000 0.000000 0.000000 0.000000 0.000000 0.000000 0.000000 0.000000 0.000000 0.000000 0.000000 0.000000 0.000000 0.000000 0.000000 0.000000 0.000000 0.000000 0.000000 0.000000 0.000000 0.000000 0.000000 0.000000 0.000000 0.000000 0.000000 0.000000 0.000000 0.000000 0.000000 0.000000 0.000000 0.000000 0.000000 0.000000 0.000000 0.000000 0.000000 0.000000 0.000000 0.000000 0.000000 0.000000 0.000000 0.000000 0.000000 0.000000 0.000000 0.000000 0.000000 0.000000 0.000000 0.000000 0.000000 0.000000 0.000000 0.000000 0.000000 0.000000 0.000000 0.000000 0.000000 0.000000 0.000000 0.000000 0.000000 0.000000 0.000000 0.000000 0.000000 0.000000 0.000000 0.000000 0.000000 0.000000 0.000000 0.000000 0.000000 0.000000 0.000000 0.000000 0.000000 0.000000 0.000000 0.000000 0.000000 0.000000 0.000000 0.000000 0.000000 0.000000 0.000000 0.000000 0.000000 0.000000 0.000000 0.000000 0.000000 0.000000 0.000000 0.000000 0.000000 0.000000 0.000000 0.000000 0.000000 0.000000 0.000000 0.000000 0.000000 0.000000 0.000000 0.000000 0.000000 0.000000 0.000000 0.000000 0.000000 0.000000 0.000000 0.000000 0.000000 0.000000 0.000000 0.000000 0.000000 0.000000 0.000000 0.000000 0.000000 0.000000 0.000000 0.000000 0.000000 0.000000 0.000000 0.000000 0.000000 0.000000 0.000000 0.000000 0.000000 0.000000 0.000000 0.000000 0.000000 0.000000 0.000000 0.000000 0.000000 0.000000 0.000000 0.000000 0.000000 0.000000 0.000000 0.000000 0.000000 0.000000 0.000000 0.000000 0.000000 0.000000 0.000000 0.000000 0.000000 0.000000 0.000000 0.000000 0.000000 0.000000 0.000000 0.000000 0.000000 0.000000 0.010000 0.010000 0.010000 0.010000 0.010000 0.010000 0.010000 0.010000 0.010000 0.010000 0.010000 0.010000 0.010000 0.010000 0.010000 0.010000 0.010000 0.010000 0.010000 0.010000 0.010000 0.010000 0.010000 0.010000 0.010000 0.010000 0.010000 0.010000 0.010000 0.010000 0.010000 0.010000 0.010000 0.010000 0.010000 0.010000 0.010000 0.010000 0.010000 0.010000 0.010000 0.010000 0.010000 0.010000 0.010000 0.010000 0.010000 0.010000 0.010000 0.010000 0.010000 0.010000 0.010000 0.010000 0.010000 0.010000 0.010000 0.010000 0.010000 0.010000 0.010000 0.010000 0.010000 0.010000 0.010000 0.010000 0.010000 0.010000 0.010000 0.010000 0.010000 0.010000 0.010000 0.010000 0.010000 0.010000 0.010000 0.010000 0.010000 0.010000 0.010000 0.010000 0.010000 0.010000 0.010000 0.010000 0.010000 0.010000 0.010000 0.010000 0.010000 0.010000 0.010000 0.010000 0.010000 0.010000 0.010000 0.010000 0.010000 0.010000 0.010000 0.010000 0.010000 0.010000 0.010000 0.010000 0.010000 0.010000 0.010000 0.010000 0.010000 0.010000 0.010000 0.010000 0.010000 0.010000 0.010000 0.010000 0.010000 0.010000 0.010000 0.010000 0.010000 0.010000 0.010000 0.010000 0.010000 0.010000 0.010000 0.010000 0.010000 0.010000 0.010000 0.010000 0.010000 0.010000 0.010000 0.010000 0.010000 0.010000 0.010000 0.010000 0.010000 0.010000 0.010000 0.010000 0.010000 0.010000 0.010000 0.010000 0.010000 0.010000 0.010000 0.010000 0.010000 0.010000 0.010000 0.010000 0.010000 0.010000 0.010000 0.010000 0.010000 0.010000 0.010000 0.010000 0.010000 0.010000 0.010000 0.010000 0.010000 0.010000 0.010000 0.010000 0.010000 0.010000 0.010000 0.010000 0.010000 0.010000 0.010000 0.010000 0.010000 0.010000 0.010000 0.010000 0.010000 0.010000 0.010000 0.010000 0.010000 0.010000 0.010000 0.010000 0.010000 0.010000 0.010000 0.010000 0.010000 0.010000 0.010000 0.010000 0.010000 0.010000 0.010000 0.010000 0.010000 0.010000 0.010000 0.010000 0.010000 0.010000 0.010000 0.010000 0.010000 0.010000 0.010000 0.010000 0.010000 0.010000 0.010000 0.010000 0.010000 0.010000 0.010000 0.010000 0.010000 0.010000 0.010000 0.010000 0.010000 0.010000 0.010000 0.010000 0.010000 0.010000 0.010000 0.010000 0.010000 0.010000 0.010000 0.010000 0.010000 0.010000 0.010000 0.010000 0.010000 0.010000 0.010000 0.010000 0.010000 0.010000 0.010000 0.010000 0.010000 0.010000 0.010000 0.010000 0.010000 0.010000 0.010000 0.010000 0.010000 0.010000 0.010000 0.010000 0.010000 0.010000 0.010000 0.010000 0.010000 0.010000 0.010000 0.010000 0.010000 0.010000 0.010000 0.010000 0.010000 0.010000 0.010000 0.010000 0.010000 0.010000 0.010000 0.010000 0.010000 0.010000 0.010000 0.010000 0.010000 0.010000 0.010000 0.010000 0.010000 0.010000 0.010000 0.010000 0.010000 0.010000 0.010000 0.010000 0.010000 0.010000 0.010000 0.010000 0.010000 0.010000 0.010000 0.010000 0.010000 0.010000 0.010000 0.010000 0.010000 0.010000 0.010000 0.010000 0.010000 0.010000 0.010000 0.010000 0.010000 0.010000 0.010000 0.010000 0.010000 0.010000 0.010000 0.010000 0.010000 0.010000 0.010000 0.010000 0.010000 0.010000 0.010000 0.010000 0.010000 0.010000 0.010000 0.010000 0.010000 0.010000 0.010000 0.010000 0.010000 0.010000 0.010000 0.010000 0.010000 0.010000 0.010000 0.010000 0.010000 0.010000 0.010000 0.010000 0.010000 0.010000 0.010000 0.010000 0.010000 0.010000 0.010000 0.010000 0.010000 0.010000 0.010000 0.010000 0.010000 0.010000 0.010000 0.010000 0.010000 0.010000 0.010000 0.010000 0.010000 0.010000 0.010000 0.010000 0.010000 0.010000 0.010000 0.010000 0.010000 0.010000 0.010000 0.010000 0.010000 0.010000 0.010000 0.010000 0.010000 0.010000 0.010000 0.010000 0.010000 0.010000 0.010000 0.010000 0.010000 0.010000 0.010000 0.010000 0.010000 0.010000 0.010000 0.010000 0.010000 0.010000 0.010000 0.010000 0.010000 0.010000 0.010000 0.010000 0.010000 0.010000 0.010000 0.010000 0.010000 0.010000 0.010000 0.010000 0.010000 0.010000 0.010000 0.010000 0.010000 0.010000 0.010000 0.010000 0.010000 0.010000 0.010000 0.010000 0.010000 0.010000 0.010000 0.010000 0.010000 0.010000 0.010000 0.010000 0.010000 0.010000 0.010000 0.010000 0.010000 0.010000 0.010000 0.010000 0.010000 0.010000 0.010000 0.010000 0.010000 0.010000 0.010000 0.010000 0.010000 0.010000 0.010000 0.010000 0.010000 0.010000 0.010000 0.010000 0.010000 0.010000 0.010000 0.010000 0.010000 0.010000 0.010000 0.010000 0.010000 0.010000 0.010000 0.010000 0.010000 0.010000 0.010000 0.010000 0.010000 0.010000 0.010000 0.010000 0.010000 0.010000 0.010000 0.010000 0.010000 0.010000 0.010000 0.010000 0.010000 0.010000 0.010000 
1.000000 1.000000 1.000000 1.000000 1.000000 1.000000 1.000000 1.000000 1.000000 1.000000 1.000000 1.000000 1.000000 1.000000 1.000000 1.000000 1.000000 1.000000 1.000000 1.000000 1.000000 1.000000 1.000000 1.000000 1.000000 1.000000 1.000000 1.000000 1.000000 1.000000 1.000000 1.000000 1.000000 1.000000 1.000000 1.000000 1.000000 1.000000 1.000000 1.000000 1.000000 1.000000 1.000000 1.000000 1.000000 1.000000 1.000000 1.000000 1.000000 1.000000 1.000000 1.000000 1.000000 1.000000 1.000000 1.000000 1.000000 1.000000 1.000000 1.000000 1.000000 1.000000 1.000000 1.000000 1.000000 1.000000 1.000000 1.000000 1.000000 1.000000 1.000000 1.000000 1.000000 1.000000 1.000000 1.000000 1.000000 1.000000 1.000000 1.000000 1.000000 1.000000 1.000000 1.000000 1.000000 1.000000 1.000000 1.000000 1.000000 1.000000 1.000000 1.000000 1.000000 1.000000 1.000000 1.000000 1.000000 1.000000 1.000000 1.000000 1.000000 1.000000 1.000000 1.000000 1.000000 1.000000 1.000000 1.000000 1.000000 1.000000 1.000000 1.000000 1.000000 1.000000 1.000000 1.000000 1.000000 1.000000 1.000000 1.000000 1.000000 1.000000 1.000000 1.000000 1.000000 0.999999 0.999998 0.999997 0.999994 0.999989 0.999981 0.999968 0.999947 0.999913 0.999861 0.999782 0.999666 0.999498 0.999261 0.998933 0.998491 0.997907 0.997150 0.996190 0.994996 0.993540 0.991797 0.989744 0.987366 0.984653 0.981601 0.978212 0.974491 0.970451 0.966107 0.961475 0.956576 0.951429 0.946057 0.940479 0.934716 0.928788 0.922713 0.916508 0.910189 0.903772 0.897269 0.890693 0.884055 0.877366 0.870634 0.863869 0.857076 0.850264 0.843438 0.836603 0.829765 0.822928 0.816096 0.809272 0.802460 0.795662 0.788881 0.782120 0.775380 0.768664 0.761973 0.755309 0.748672 0.742066 0.735489 0.728944 0.722432 0.715953 0.709508 0.703097 0.696722 0.690383 0.684080 0.677814 0.671586 0.665395 0.659242 0.653127 0.647050 0.641013 0.635014 0.629055 0.623134 0.617253 0.611412 0.605611 0.599849 0.594127 0.588445 0.582803 0.577202 0.571640 0.566118 0.560637 0.555196 0.549796 0.544435 0.539115 0.533836 0.528596 0.523397 0.518239 0.513121 0.508043 0.503006 0.498010 0.493053 0.488138 0.483262 0.478427 0.473632 0.468878 0.464163 0.459488 0.454853 0.450258 0.445701 0.441183 0.436703 0.432261 0.427857 0.423491 0.419165 0.414888 0.410689 0.406691 0.403730 0.404230 0.405260 0.405908 0.406255 0.406429 0.406527 0.406593 0.406642 0.406678 0.406705 0.406724 0.406736 0.406743 0.406745 0.406742 0.406736 0.406727 0.406715 0.406701 0.406684 0.406666 0.406646 0.406625 0.406603 0.406580 0.406555 0.406530 0.406504 0.406476 0.406448 0.406418 0.406387 0.406355 0.406322 0.406287 0.406250 0.406212 0.406172 0.406129 0.406084 0.406036 0.405986 0.405932 0.405874 0.405811 0.405744 0.405670 0.405588 0.405498 0.405395 0.405277 0.405137 0.404968 0.404759 0.404493 0.404148 0.403693 0.403088 0.402280 0.401204 0.399780 0.397915 0.395507 0.392446 0.388622 0.383932 0.378293 0.371646 0.363973 0.355298 0.345695 0.335290 0.324254 0.312799 0.301159 0.289585 0.278320 0.267589 0.257584 0.248453 0.240297 0.233165 0.227061 0.221946 0.217751 0.214383 0.211735 0.209698 0.208163 0.207030 0.206212 0.205633 0.205231 0.204958 0.204776 0.204656 0.204579 0.204529 0.204498 0.204478 0.204466 0.204458 0.204453 0.204449 0.204447 0.204445 0.204444 0.204444 0.204443 0.204443 0.204443 0.204444 0.204444 0.204445 0.204445 0.204446 0.204446 0.204447 0.204448 0.204448 0.204449 0.204449 0.204450 0.204451 0.204451 0.204452 0.204453 0.204453 0.204454 0.204455 0.204455 0.204456 0.204457 0.204457 0.204458 0.204458 0.204460 0.204460 0.204461 0.204461 0.204463 0.204464 0.204464 0.204464 0.204466 0.204467 0.204433 0.203097 0.181036 0.124200 0.101934 0.100096 0.100005 0.100000 0.100000 0.100000 0.100000 0.100000 0.100000 0.100000 0.100000 0.100000 0.100000 0.100000 0.100000 0.100000 0.100000 0.100000 0.100000 0.100000 0.100000 0.100000 0.100000 0.100000 0.100000 0.100000 0.100000 0.100000 0.100000 0.100000 0.100000 0.100000 0.100000 0.100000 0.100000 0.100000 0.100000 0.100000 0.100000 0.100000 0.100000 0.100000 0.100000 0.100000 0.100000 0.100000 0.100000 0.100000 0.100000 0.100000 0.100000 0.100000 0.100000 0.100000 0.100000 0.100000 0.100000 0.100000 0.100000 0.100000 0.100000 0.100000 0.100000 0.100000 0.100000 0.100000 0.100000 0.100000 0.100000 0.100000 0.100000 0.100000 0.100000 0.100000 0.100000 0.100000 0.100000 0.100000 0.100000 0.100000 0.100000 0.100000 0.100000 0.100000 0.100000 0.100000 0.100000 0.100000 0.100000 0.100000 0.100000 0.100000 0.100000 0.100000 0.100000 0.100000 0.100000 
0.000000 0.000000 0.000000 0.000000 0.000000 0.000000 0.000000 0.000000 0.000000 0.000000 0.000000 0.000000 0.000000 0.000000 0.000000 0.000000 0.000000 0.000000 0.000000 0.000000 0.000000 0.000000 0.000000 0.000000 0.000000 0.000000 0.000000 0.000000 0.000000 0.000000 0.000000 0.000000 0.000000 0.000000 0.000000 0.000000 0.000000 0.000000 0.000000 0.000000 0.000000 0.000000 0.000000 0.000000 0.000000 0.000000 0.000000 0.000000 0.000000 0.000000 0.000000 0.000000 0.000000 0.000000 0.000000 0.000000 0.000000 0.000000 0.000000 0.000000 0.000000 0.000000 0.000000 0.000000 0.000000 0.000000 0.000000 0.000000 0.000000 0.000000 0.000000 0.000000 0.000000 0.000000 0.000000 0.000000 0.000000 0.000000 0.000000 0.000000 0.000000 0.000000 0.000000 0.000000 0.000000 0.000000 0.000000 0.000000 0.000000 0.000000 0.000000 0.000000 0.000000 0.000000 0.000000 0.000000 0.000000 0.000000 0.000000 0.000000 0.000000 0.000000 0.000000 0.000000 0.000000 0.000000 0.000000 0.000000 0.000000 0.000000 0.000000 0.000000 0.000000 0.000000 0.000000 0.000000 0.000000 0.000001 0.000002 0.000005 0.000010 0.000022 0.000045 0.000092 0.000182 0.000354 0.000673 0.001252 0.002277 0.004053 0.007058 0.012030 0.020071 0.032781 0.052420 0.082085 0.125894 0.189152 0.278475 0.401844 0.568557 0.789059 1.074650 1.437075 1.888032 2.438642 3.098931 3.877387 4.780622 5.813171 6.977435 8.273752 9.700579 11.254745 12.931748 14.726065 16.631452 18.641213 20.748436 22.946183 25.227645 27.586247 30.015735 32.510223 35.064219 37.672639 40.330804 43.034427 45.779593 48.562741 51.380636 54.230346 57.109214 60.014837 62.945039 65.897854 68.871502 71.864371 74.875002 77.902072 80.944380 84.000837 87.070453 90.152324 93.245629 96.349617 99.463604 102.586962 105.719116 108.859538 112.007742 115.163283 118.325747 121.494754 124.669950 127.851009 131.037626 134.229519 137.426421 140.628086 143.834282 147.044790 150.259404 153.477930 156.700182 159.925985 163.155172 166.387580 169.623056 172.861450 176.102618 179.346418 182.592714 185.841370 189.092253 192.345231 195.600174 198.856952 202.115434 205.375489 208.636984 211.899785 215.163758 218.428764 221.694663 224.961312 228.228564 231.496273 234.764285 238.032449 241.300608 244.568606 247.836288 251.103499 254.370089 257.635914 260.900841 264.164753 267.427549 270.689161 273.949549 277.208718 280.466720 283.723655 286.979659 290.234850 293.489196 296.742146 299.991627 303.230976 306.437657 309.515543 311.808490 311.411144 310.602021 310.090408 309.812853 309.669110 309.584917 309.523944 309.476441 309.438987 309.408353 309.383236 309.363044 309.346832 309.334004 309.324154 309.316732 309.311337 309.307658 309.305333 309.304097 309.303740 309.304033 309.304815 309.305959 309.307332 309.308848 309.310441 309.312043 309.313614 309.315129 309.316559 309.317890 309.319121 309.320242 309.321255 309.322166 309.322977 309.323695 309.324329 309.324884 309.325368 309.325790 309.326155 309.326470 309.326742 309.326976 309.327177 309.327351 309.327501 309.327631 309.327745 309.327846 309.327936 309.328017 309.328092 309.328163 309.328232 309.328298 309.328365 309.328433 309.328503 309.328576 309.328653 309.328734 309.328819 309.328910 309.329007 309.329110 309.329220 309.329335 309.329458 309.329587 309.329723 309.329865 309.330014 309.330170 309.330332 309.330501 309.330676 309.330857 309.331045 309.331239 309.331439 309.331646 309.331860 309.332079 309.332306 309.332540 309.332780 309.333027 309.333282 309.333545 309.333815 309.334093 309.334379 309.334674 309.334978 309.335291 309.335612 309.335944 309.336288 309.336641 309.337003 309.337377 309.337767 309.338167 309.338576 309.338999 309.339443 309.339901 309.340366 309.340844 309.341350 309.341881 309.342414 309.342952 309.343531 309.344154 309.344774 309.345377 309.346032 309.346774 309.347515 309.348189 309.348911 309.349801 309.350725 309.351484 309.352232 309.353289 309.354508 309.355400 309.356079 309.357269 309.358970 309.360143 309.360578 309.361719 309.364179 309.366023 309.365971 309.366527 309.370060 309.373487 309.372801 309.369424 309.303664 306.367094 255.806430 89.840845 7.300542 0.359992 0.017103 0.000811 0.000038 0.000002 0.000000 0.000000 0.000000 0.000000 0.000000 0.000000 0.000000 0.000000 0.000000 0.000000 0.000000 0.000000 0.000000 0.000000 0.000000 0.000000 0.000000 0.000000 0.000000 0.000000 0.000000 0.000000 0.000000 0.000000 0.000000 0.000000 0.000000 0.000000 0.000000 0.000000 0.000000 0.000000 0.000000 0.000000 0.000000 0.000000 0.000000 0.000000 0.000000 0.000000 0.000000 0.000000 0.000000 0.000000 0.000000 0.000000 0.000000 0.000000 0.000000 0.000000 0.000000 0.000000 0.000000 0.000000 0.000000 0.000000 0.000000 0.000000 0.000000 0.000000 0.000000 0.000000 0.000000 0.000000 0.000000 0.000000 0.000000 0.000000 0.000000 0.000000 0.000000 0.000000 0.000000 0.000000 0.000000 0.000000 0.000000 0.000000 0.000000 0.000000 0.000000 0.000000 0.000000 0.000000 0.000000 0.000000 0.000000 0.000000 0.000000 0.000000 0.000000 